ITEM: TIMESTEP
0
ITEM: NUMBER OF ATOMS
3822
ITEM: BOX BOUNDS pp pp pp
0 31.974
0 34.08
-150 273.2
ITEM: ATOMS id type x y z q 
1285 5 0 0.71 0 0.00273363 
1286 5 1.22976 0 0 1.82564 
1287 5 2.45951 0.71 0 0.672422 
1288 5 3.68927 0 0 7.80556 
1289 5 4.91902 0.71 0 1.69703 
1290 5 6.14878 0 0 -0.314951 
1291 5 7.37854 0.71 0 -4.04473 
1292 5 8.60829 0 0 -1.41075 
1293 5 9.83805 0.71 0 -3.74805 
1312 5 0 2.13 0 -0.00145135 
1313 5 1.22976 2.84 0 1.03934 
1314 5 2.45951 2.13 0 1.14708 
1315 5 3.68927 2.84 0 3.99601 
1316 5 4.91902 2.13 0 -2.66712 
1317 5 6.14878 2.84 0 -7.6673 
1318 5 7.37854 2.13 0 -7.66994 
1319 5 8.60829 2.84 0 -12.7126 
1320 5 9.83805 2.13 0 -9.7535 
1339 5 0 4.97 0 -0.00698145 
1340 5 1.22976 4.26 0 -1.78034 
1341 5 2.45951 4.97 0 3.23614 
1342 5 3.68927 4.26 0 13.8801 
1343 5 4.91902 4.97 0 3.94341 
1344 5 6.14878 4.26 0 -1.6898 
1345 5 7.37854 4.97 0 -3.35377 
1346 5 8.60829 4.26 0 -5.19693 
1347 5 9.83805 4.97 0 10.5791 
1366 5 0 6.39 0 0.00345753 
1367 5 1.22976 7.1 0 -5.13587 
1368 5 2.45951 6.39 0 0.763238 
1369 5 3.68927 7.1 0 3.28965 
1370 5 4.91902 6.39 0 -4.87608 
1371 5 6.14878 7.1 0 -11.4601 
1372 5 7.37854 6.39 0 -5.77781 
1373 5 8.60829 7.1 0 11.415 
1374 5 9.83805 6.39 0 19.8679 
1394 5 1.22976 8.52 0 2.87891 
1396 5 3.68927 8.52 0 2.08932 
1398 5 6.14878 8.52 0 -5.5703 
1400 5 8.60829 8.52 0 -5.46775 
2149 5 0 1.42 3.4 0.00914322 
2150 5 1.22976 0.71 3.4 -0.991276 
2151 5 2.45951 1.42 3.4 -3.87989 
2152 5 3.68927 0.71 3.4 -2.71913 
2153 5 4.91902 1.42 3.4 -6.77532 
2154 5 6.14878 0.71 3.4 -6.87874 
2155 5 7.37854 1.42 3.4 -0.848595 
2156 5 8.60829 0.71 3.4 2.90303 
2157 5 9.83805 1.42 3.4 0.180892 
2176 5 0 2.84 3.4 -0.0100674 
2177 5 1.22976 3.55 3.4 1.4648 
2178 5 2.45951 2.84 3.4 2.74036 
2179 5 3.68927 3.55 3.4 7.39828 
2180 5 4.91902 2.84 3.4 1.93158 
2181 5 6.14878 3.55 3.4 4.6333 
2182 5 7.37854 2.84 3.4 3.30353 
2183 5 8.60829 3.55 3.4 -5.88375 
2184 5 9.83805 2.84 3.4 -6.63111 
2203 5 0 5.68 3.4 -0.00154964 
2204 5 1.22976 4.97 3.4 -2.35868 
2205 5 2.45951 5.68 3.4 -6.9705 
2206 5 3.68927 4.97 3.4 2.4934 
2207 5 4.91902 5.68 3.4 2.87474 
2208 5 6.14878 4.97 3.4 6.72363 
2209 5 7.37854 5.68 3.4 3.74402 
2210 5 8.60829 4.97 3.4 -5.06082 
2211 5 9.83805 5.68 3.4 2.82526 
2230 5 0 7.1 3.4 2.43505 
2231 5 1.22976 7.81 3.4 10.3508 
2232 5 2.45951 7.1 3.4 -7.59706 
2233 5 3.68927 7.81 3.4 -7.94911 
2234 5 4.91902 7.1 3.4 -1.28247 
2235 5 6.14878 7.81 3.4 -0.280325 
2236 5 7.37854 7.1 3.4 0.00521288 
2237 5 8.60829 7.81 3.4 3.96014 
2238 5 9.83805 7.1 3.4 1.06302 
1294 5 11.0678 0 0 -4.24212 
1295 5 12.2976 0.71 0 -11.4304 
1296 5 13.5273 0 0 -14.4625 
1297 5 14.7571 0.71 0 -7.56359 
1298 5 15.9868 0 0 -1.50744 
1299 5 17.2166 0.71 0 -0.413078 
1300 5 18.4463 0 0 -2.13651 
1301 5 19.6761 0.71 0 6.3274 
1302 5 20.9059 0 0 14.9539 
1321 5 11.0678 2.84 0 1.10205 
1322 5 12.2976 2.13 0 0.377789 
1323 5 13.5273 2.84 0 17.8795 
1324 5 14.7571 2.13 0 6.12524 
1325 5 15.9868 2.84 0 8.37424 
1326 5 17.2166 2.13 0 4.61137 
1327 5 18.4463 2.84 0 -5.31499 
1328 5 19.6761 2.13 0 -10.0985 
1329 5 20.9059 2.84 0 -9.94999 
1348 5 11.0678 4.26 0 13.4378 
1349 5 12.2976 4.97 0 6.1153 
1350 5 13.5273 4.26 0 12.7584 
1351 5 14.7571 4.97 0 0.00765575 
1352 5 15.9868 4.26 0 2.49455 
1353 5 17.2166 4.97 0 -0.324846 
1354 5 18.4463 4.26 0 2.8459 
1355 5 19.6761 4.97 0 8.39446 
1356 5 20.9059 4.26 0 -5.3518 
1375 5 11.0678 7.1 0 1.64971 
1376 5 12.2976 6.39 0 -0.535432 
1377 5 13.5273 7.1 0 -2.19845 
1378 5 14.7571 6.39 0 -12.5998 
1379 5 15.9868 7.1 0 -15.525 
1380 5 17.2166 6.39 0 -8.48614 
1381 5 18.4463 7.1 0 -0.00213175 
1382 5 19.6761 6.39 0 3.97182 
1383 5 20.9059 7.1 0 -1.96655 
1402 5 11.0678 8.52 0 -1.26464 
1404 5 13.5273 8.52 0 -10.394 
1406 5 15.9868 8.52 0 -11.5153 
1408 5 18.4463 8.52 0 17.3356 
1410 5 20.9059 8.52 0 -5.02799 
2158 5 11.0678 0.71 3.4 -2.16415 
2159 5 12.2976 1.42 3.4 0.00549136 
2160 5 13.5273 0.71 3.4 4.79449 
2161 5 14.7571 1.42 3.4 8.21211 
2162 5 15.9868 0.71 3.4 6.1891 
2163 5 17.2166 1.42 3.4 4.87481 
2164 5 18.4463 0.71 3.4 0.558701 
2165 5 19.6761 1.42 3.4 -2.80847 
2166 5 20.9059 0.71 3.4 11.1361 
2185 5 11.0678 3.55 3.4 -2.09527 
2186 5 12.2976 2.84 3.4 -0.0117794 
2187 5 13.5273 3.55 3.4 -1.59071 
2188 5 14.7571 2.84 3.4 5.50006 
2189 5 15.9868 3.55 3.4 -4.36345 
2190 5 17.2166 2.84 3.4 1.56836 
2191 5 18.4463 3.55 3.4 0.495953 
2192 5 19.6761 2.84 3.4 -5.32594 
2193 5 20.9059 3.55 3.4 2.55643 
2212 5 11.0678 4.97 3.4 4.09614 
2213 5 12.2976 5.68 3.4 -0.801308 
2214 5 13.5273 4.97 3.4 -2.10941 
2215 5 14.7571 5.68 3.4 -8.4421 
2216 5 15.9868 4.97 3.4 -9.29192 
2217 5 17.2166 5.68 3.4 -0.0056212 
2218 5 18.4463 4.97 3.4 -5.06619 
2219 5 19.6761 5.68 3.4 -6.56789 
2220 5 20.9059 4.97 3.4 0.151602 
2239 5 11.0678 7.81 3.4 4.09209 
2240 5 12.2976 7.1 3.4 0.00432421 
2241 5 13.5273 7.81 3.4 -6.33385 
2242 5 14.7571 7.1 3.4 -7.33548 
2243 5 15.9868 7.81 3.4 8.81997 
2244 5 17.2166 7.1 3.4 11.6241 
2245 5 18.4463 7.81 3.4 5.49833 
2246 5 19.6761 7.1 3.4 -0.189566 
2247 5 20.9059 7.81 3.4 2.93178 
1303 5 22.1356 0.71 0 14.2525 
1304 5 23.3654 0 0 -0.0535027 
1305 5 24.5951 0.71 0 -13.7743 
1306 5 25.8249 0 0 -6.35167 
1307 5 27.0546 0.71 0 6.14778 
1308 5 28.2844 0 0 -0.00552806 
1309 5 29.5141 0.71 0 1.73802 
1310 5 30.7439 0 0 -14.1068 
1311 5 31.9737 0.71 0 -4.89532 
1330 5 22.1356 2.13 0 3.96549 
1331 5 23.3654 2.84 0 -14.1513 
1332 5 24.5951 2.13 0 -10.9473 
1333 5 25.8249 2.84 0 13.2448 
1334 5 27.0546 2.13 0 20.9378 
1335 5 28.2844 2.84 0 19.0937 
1336 5 29.5141 2.13 0 8.01555 
1337 5 30.7439 2.84 0 -4.47866 
1338 5 31.9737 2.13 0 -10.8222 
1357 5 22.1356 4.97 0 -1.3059 
1358 5 23.3654 4.26 0 -12.5312 
1359 5 24.5951 4.97 0 -0.0592957 
1360 5 25.8249 4.26 0 4.72029 
1361 5 27.0546 4.97 0 -0.671886 
1362 5 28.2844 4.26 0 5.65849 
1363 5 29.5141 4.97 0 -7.34445 
1364 5 30.7439 4.26 0 -11.5551 
1365 5 31.9737 4.97 0 -23.5238 
1384 5 22.1356 6.39 0 0.301048 
1385 5 23.3654 7.1 0 13.0066 
1386 5 24.5951 6.39 0 10.0003 
1387 5 25.8249 7.1 0 -5.13794 
1388 5 27.0546 6.39 0 -5.68702 
1389 5 28.2844 7.1 0 -10.7301 
1390 5 29.5141 6.39 0 -3.83206 
1391 5 30.7439 7.1 0 7.84526 
1392 5 31.9737 6.39 0 -0.456702 
1412 5 23.3654 8.52 0 8.23523 
1414 5 25.8249 8.52 0 -8.08288 
1416 5 28.2844 8.52 0 -0.00295203 
1418 5 30.7439 8.52 0 12.362 
2167 5 22.1356 1.42 3.4 9.24724 
2168 5 23.3654 0.71 3.4 4.36935 
2169 5 24.5951 1.42 3.4 0.726787 
2170 5 25.8249 0.71 3.4 -0.0049045 
2171 5 27.0546 1.42 3.4 1.97044 
2172 5 28.2844 0.71 3.4 3.66151 
2173 5 29.5141 1.42 3.4 -0.125701 
2174 5 30.7439 0.71 3.4 6.48184 
2175 5 31.9737 1.42 3.4 26.8211 
2194 5 22.1356 2.84 3.4 2.73331 
2195 5 23.3654 3.55 3.4 -3.681 
2196 5 24.5951 2.84 3.4 -0.320003 
2197 5 25.8249 3.55 3.4 0.00172177 
2198 5 27.0546 2.84 3.4 4.99021 
2199 5 28.2844 3.55 3.4 4.73904 
2200 5 29.5141 2.84 3.4 -8.91571 
2201 5 30.7439 3.55 3.4 -17.2286 
2202 5 31.9737 2.84 3.4 -28.9204 
2221 5 22.1356 5.68 3.4 -5.54207 
2222 5 23.3654 4.97 3.4 -7.44167 
2223 5 24.5951 5.68 3.4 -11.4136 
2224 5 25.8249 4.97 3.4 -8.24191 
2225 5 27.0546 5.68 3.4 0.000417205 
2226 5 28.2844 4.97 3.4 5.19132 
2227 5 29.5141 5.68 3.4 -0.00298331 
2228 5 30.7439 4.97 3.4 -5.25255 
2229 5 31.9737 5.68 3.4 -2.35784 
2248 5 22.1356 7.1 3.4 -0.222829 
2249 5 23.3654 7.81 3.4 9.53131 
2250 5 24.5951 7.1 3.4 5.79019 
2251 5 25.8249 7.81 3.4 11.1027 
2252 5 27.0546 7.1 3.4 0.26225 
2253 5 28.2844 7.81 3.4 -2.41063 
2254 5 29.5141 7.1 3.4 -0.966382 
2255 5 30.7439 7.81 3.4 3.0283 
2256 5 31.9737 7.1 3.4 24.3293 
1393 5 0 9.23 0 25.4712 
1395 5 2.45951 9.23 0 2.73343 
1397 5 4.91902 9.23 0 -3.63264 
1399 5 7.37854 9.23 0 -10.7147 
1401 5 9.83805 9.23 0 -2.08163 
1420 5 0 10.65 0 -19.4847 
1421 5 1.22976 11.36 0 -13.6577 
1422 5 2.45951 10.65 0 -0.0249522 
1423 5 3.68927 11.36 0 6.59499 
1424 5 4.91902 10.65 0 -0.151839 
1425 5 6.14878 11.36 0 1.15011 
1426 5 7.37854 10.65 0 -2.48295 
1427 5 8.60829 11.36 0 -2.22488 
1428 5 9.83805 10.65 0 1.11064 
1447 5 0 13.49 0 3.54999 
1448 5 1.22976 12.78 0 2.00683 
1449 5 2.45951 13.49 0 -4.24638 
1450 5 3.68927 12.78 0 0.684218 
1451 5 4.91902 13.49 0 0.325544 
1452 5 6.14878 12.78 0 0.00759406 
1453 5 7.37854 13.49 0 1.32535 
1454 5 8.60829 12.78 0 2.74994 
1455 5 9.83805 13.49 0 8.18713 
1474 5 0 14.91 0 -29.8362 
1475 5 1.22976 15.62 0 16.9333 
1476 5 2.45951 14.91 0 2.36594 
1477 5 3.68927 15.62 0 -7.2663 
1478 5 4.91902 14.91 0 -12.4468 
1479 5 6.14878 15.62 0 -7.41398 
1480 5 7.37854 14.91 0 7.06325 
1481 5 8.60829 15.62 0 12.6726 
1482 5 9.83805 14.91 0 4.22511 
1502 5 1.22976 17.04 0 33.3437 
1504 5 3.68927 17.04 0 -6.00577 
1506 5 6.14878 17.04 0 -1.63783 
1508 5 8.60829 17.04 0 1.13033 
2257 5 0 9.94 3.4 -6.75163 
2258 5 1.22976 9.23 3.4 10.8308 
2259 5 2.45951 9.94 3.4 4.06764 
2260 5 3.68927 9.23 3.4 -14.122 
2261 5 4.91902 9.94 3.4 -19.1118 
2262 5 6.14878 9.23 3.4 -4.29958 
2263 5 7.37854 9.94 3.4 4.34205 
2264 5 8.60829 9.23 3.4 0.00708572 
2265 5 9.83805 9.94 3.4 -1.50554 
2284 5 0 11.36 3.4 37.4541 
2286 5 2.45951 11.36 3.4 10.6861 
2288 5 4.91902 11.36 3.4 -6.29144 
2290 5 7.37854 11.36 3.4 1.36831 
2292 5 9.83805 11.36 3.4 -13.1229 
2285 5 1.22976 12.07 3.4 24.9569 
2287 5 3.68927 12.07 3.4 3.78337 
2289 5 6.14878 12.07 3.4 -0.0136737 
2291 5 8.60829 12.07 3.4 -4.67387 
2311 5 0 14.2 3.4 -13.2273 
2312 5 1.22976 13.49 3.4 4.59351 
2313 5 2.45951 14.2 3.4 0.585578 
2314 5 3.68927 13.49 3.4 0.66206 
2315 5 4.91902 14.2 3.4 0.136758 
2316 5 6.14878 13.49 3.4 -4.51109 
2317 5 7.37854 14.2 3.4 -3.95879 
2318 5 8.60829 13.49 3.4 -0.00290573 
2319 5 9.83805 14.2 3.4 9.25328 
2338 5 0 15.62 3.4 -10.5524 
2339 5 1.22976 16.33 3.4 -21.0814 
2340 5 2.45951 15.62 3.4 -11.5604 
2341 5 3.68927 16.33 3.4 -6.69792 
2342 5 4.91902 15.62 3.4 -1.77002 
2343 5 6.14878 16.33 3.4 5.65196 
2344 5 7.37854 15.62 3.4 9.31874 
2345 5 8.60829 16.33 3.4 5.81449 
2346 5 9.83805 15.62 3.4 2.88055 
1403 5 12.2976 9.23 0 -3.37786 
1405 5 14.7571 9.23 0 -11.0628 
1407 5 17.2166 9.23 0 10.8036 
1409 5 19.6761 9.23 0 20.1814 
1429 5 11.0678 11.36 0 -0.0071549 
1430 5 12.2976 10.65 0 6.96595 
1431 5 13.5273 11.36 0 9.51307 
1432 5 14.7571 10.65 0 5.97514 
1433 5 15.9868 11.36 0 -1.14025 
1434 5 17.2166 10.65 0 0.719918 
1435 5 18.4463 11.36 0 1.35806 
1436 5 19.6761 10.65 0 25.1877 
1437 5 20.9059 11.36 0 3.32833 
1456 5 11.0678 12.78 0 0.00547071 
1457 5 12.2976 13.49 0 -6.04655 
1458 5 13.5273 12.78 0 5.09492 
1459 5 14.7571 13.49 0 6.83716 
1460 5 15.9868 12.78 0 -1.5634 
1461 5 17.2166 13.49 0 2.8984 
1462 5 18.4463 12.78 0 -8.85205 
1463 5 19.6761 13.49 0 -13.367 
1464 5 20.9059 12.78 0 -4.95198 
1483 5 11.0678 15.62 0 -14.4301 
1484 5 12.2976 14.91 0 -13.0341 
1485 5 13.5273 15.62 0 -1.8502 
1486 5 14.7571 14.91 0 -0.661138 
1487 5 15.9868 15.62 0 8.67693 
1488 5 17.2166 14.91 0 13.3191 
1489 5 18.4463 15.62 0 5.92678 
1490 5 19.6761 14.91 0 -4.89983 
1491 5 20.9059 15.62 0 -13.2168 
1510 5 11.0678 17.04 0 -12.6533 
1512 5 13.5273 17.04 0 12.0074 
1514 5 15.9868 17.04 0 16.3289 
1516 5 18.4463 17.04 0 -13.3931 
1518 5 20.9059 17.04 0 -10.9575 
2266 5 11.0678 9.23 3.4 13.0997 
2267 5 12.2976 9.94 3.4 1.83286 
2268 5 13.5273 9.23 3.4 -2.84644 
2269 5 14.7571 9.94 3.4 -2.21736 
2270 5 15.9868 9.23 3.4 1.33424 
2271 5 17.2166 9.94 3.4 -2.73205 
2272 5 18.4463 9.23 3.4 9.16208 
2273 5 19.6761 9.94 3.4 12.9931 
2274 5 20.9059 9.23 3.4 8.04166 
2294 5 12.2976 11.36 3.4 -3.49434 
2296 5 14.7571 11.36 3.4 -0.00136365 
2298 5 17.2166 11.36 3.4 -1.46038 
2300 5 19.6761 11.36 3.4 -0.253577 
2293 5 11.0678 12.07 3.4 -9.53687 
2295 5 13.5273 12.07 3.4 0.130509 
2297 5 15.9868 12.07 3.4 9.72645 
2299 5 18.4463 12.07 3.4 -0.781641 
2301 5 20.9059 12.07 3.4 -7.86472 
2320 5 11.0678 13.49 3.4 7.43261 
2321 5 12.2976 14.2 3.4 5.10311 
2322 5 13.5273 13.49 3.4 1.80803 
2323 5 14.7571 14.2 3.4 -4.65149 
2324 5 15.9868 13.49 3.4 11.3194 
2325 5 17.2166 14.2 3.4 -9.60493 
2326 5 18.4463 13.49 3.4 -8.44794 
2327 5 19.6761 14.2 3.4 -6.2199 
2328 5 20.9059 13.49 3.4 -10.2104 
2347 5 11.0678 16.33 3.4 6.52384 
2348 5 12.2976 15.62 3.4 4.52506 
2349 5 13.5273 16.33 3.4 0.00947641 
2350 5 14.7571 15.62 3.4 -7.93435 
2351 5 15.9868 16.33 3.4 -6.01734 
2352 5 17.2166 15.62 3.4 -6.88429 
2353 5 18.4463 16.33 3.4 6.95969 
2354 5 19.6761 15.62 3.4 6.7584 
2355 5 20.9059 16.33 3.4 -0.0103769 
1411 5 22.1356 9.23 0 -14.1148 
1413 5 24.5951 9.23 0 6.53346 
1415 5 27.0546 9.23 0 -8.07683 
1417 5 29.5141 9.23 0 21.2777 
1419 5 31.9737 9.23 0 1.75057 
1438 5 22.1356 10.65 0 -19.0844 
1439 5 23.3654 11.36 0 -8.35695 
1440 5 24.5951 10.65 0 0.0131615 
1441 5 25.8249 11.36 0 -0.00404994 
1442 5 27.0546 10.65 0 -6.34409 
1443 5 28.2844 11.36 0 -4.07643 
1444 5 29.5141 10.65 0 11.1537 
1445 5 30.7439 11.36 0 4.43316 
1446 5 31.9737 10.65 0 -14.0181 
1465 5 22.1356 13.49 0 -11.1175 
1466 5 23.3654 12.78 0 -2.39545 
1467 5 24.5951 13.49 0 5.22509 
1468 5 25.8249 12.78 0 0.0117733 
1469 5 27.0546 13.49 0 -3.76875 
1470 5 28.2844 12.78 0 -10.5201 
1471 5 29.5141 13.49 0 -14.7815 
1472 5 30.7439 12.78 0 -6.56324 
1473 5 31.9737 13.49 0 7.34276 
1492 5 22.1356 14.91 0 -6.14758 
1493 5 23.3654 15.62 0 5.35387 
1494 5 24.5951 14.91 0 -2.05261 
1495 5 25.8249 15.62 0 -0.00172092 
1496 5 27.0546 14.91 0 15.8998 
1497 5 28.2844 15.62 0 28.9307 
1498 5 29.5141 14.91 0 -6.87429 
1499 5 30.7439 15.62 0 -10.4101 
1500 5 31.9737 14.91 0 -21.2918 
1520 5 23.3654 17.04 0 19.7789 
1522 5 25.8249 17.04 0 -7.19196 
1524 5 28.2844 17.04 0 36.0913 
1526 5 30.7439 17.04 0 -12.1982 
2275 5 22.1356 9.94 3.4 -5.72722 
2276 5 23.3654 9.23 3.4 1.7551 
2277 5 24.5951 9.94 3.4 0.0284216 
2278 5 25.8249 9.23 3.4 -0.410439 
2279 5 27.0546 9.94 3.4 -19.0625 
2280 5 28.2844 9.23 3.4 -3.17426 
2281 5 29.5141 9.94 3.4 30.6444 
2282 5 30.7439 9.23 3.4 3.88003 
2283 5 31.9737 9.94 3.4 -76.636 
2302 5 22.1356 11.36 3.4 -16.3692 
2304 5 24.5951 11.36 3.4 -0.927412 
2306 5 27.0546 11.36 3.4 -25.9373 
2308 5 29.5141 11.36 3.4 25.3131 
2310 5 31.9737 11.36 3.4 33.0698 
2303 5 23.3654 12.07 3.4 -9.25085 
2305 5 25.8249 12.07 3.4 -2.78704 
2307 5 28.2844 12.07 3.4 -20.4827 
2309 5 30.7439 12.07 3.4 35.8972 
2329 5 22.1356 14.2 3.4 -1.79946 
2330 5 23.3654 13.49 3.4 0.258621 
2331 5 24.5951 14.2 3.4 23.8827 
2332 5 25.8249 13.49 3.4 21.1638 
2333 5 27.0546 14.2 3.4 2.84757 
2334 5 28.2844 13.49 3.4 -11.6601 
2335 5 29.5141 14.2 3.4 -15.1786 
2336 5 30.7439 13.49 3.4 3.44252 
2337 5 31.9737 14.2 3.4 -13.7513 
2356 5 22.1356 15.62 3.4 -2.26408 
2357 5 23.3654 16.33 3.4 0.00467228 
2358 5 24.5951 15.62 3.4 -0.637409 
2359 5 25.8249 16.33 3.4 -2.98804 
2360 5 27.0546 15.62 3.4 -1.12315 
2361 5 28.2844 16.33 3.4 -1.51288 
2362 5 29.5141 15.62 3.4 -9.56457 
2363 5 30.7439 16.33 3.4 -4.79399 
2364 5 31.9737 15.62 3.4 23.6575 
1501 5 0 17.75 0 33.6975 
1503 5 2.45951 17.75 0 0.0103956 
1505 5 4.91902 17.75 0 -10.911 
1507 5 7.37854 17.75 0 18.1692 
1509 5 9.83805 17.75 0 -20.7741 
1528 5 0 19.17 0 -38.0359 
1529 5 1.22976 19.88 0 11.4707 
1530 5 2.45951 19.17 0 1.2575 
1531 5 3.68927 19.88 0 -3.02089 
1532 5 4.91902 19.17 0 -10.7372 
1533 5 6.14878 19.88 0 -2.52075 
1534 5 7.37854 19.17 0 5.15612 
1535 5 8.60829 19.88 0 -0.970113 
1536 5 9.83805 19.17 0 -1.42796 
1555 5 0 22.01 0 -0.00151363 
1556 5 1.22976 21.3 0 25.7976 
1557 5 2.45951 22.01 0 4.26662 
1558 5 3.68927 21.3 0 -0.156716 
1559 5 4.91902 22.01 0 11.8427 
1560 5 6.14878 21.3 0 14.5644 
1561 5 7.37854 22.01 0 6.00573 
1562 5 8.60829 21.3 0 -8.00482 
1563 5 9.83805 22.01 0 -5.42452 
1582 5 0 23.43 0 0.0115858 
1583 5 1.22976 24.14 0 -7.53787 
1584 5 2.45951 23.43 0 -11.5559 
1585 5 3.68927 24.14 0 -7.82757 
1586 5 4.91902 23.43 0 -1.94004 
1587 5 6.14878 24.14 0 -0.834302 
1588 5 7.37854 23.43 0 1.80278 
1589 5 8.60829 24.14 0 1.39218 
1590 5 9.83805 23.43 0 3.4135 
1610 5 1.22976 25.56 0 0.000707043 
1612 5 3.68927 25.56 0 12.6373 
1614 5 6.14878 25.56 0 6.96808 
1616 5 8.60829 25.56 0 -8.78115 
2365 5 0 18.46 3.4 36.788 
2366 5 1.22976 17.75 3.4 2.31907 
2367 5 2.45951 18.46 3.4 7.2185 
2368 5 3.68927 17.75 3.4 1.45527 
2369 5 4.91902 18.46 3.4 16.5609 
2370 5 6.14878 17.75 3.4 0.00427372 
2371 5 7.37854 18.46 3.4 -14.0198 
2372 5 8.60829 17.75 3.4 -4.44571 
2373 5 9.83805 18.46 3.4 -0.569361 
2392 5 0 19.88 3.4 -19.9519 
2393 5 1.22976 20.59 3.4 -25.7313 
2394 5 2.45951 19.88 3.4 -8.7216 
2395 5 3.68927 20.59 3.4 2.16548 
2396 5 4.91902 19.88 3.4 18.9733 
2397 5 6.14878 20.59 3.4 13.6649 
2398 5 7.37854 19.88 3.4 -16.8844 
2399 5 8.60829 20.59 3.4 -23.7053 
2400 5 9.83805 19.88 3.4 -5.27282 
2419 5 0 22.72 3.4 51.8553 
2420 5 1.22976 22.01 3.4 -12.0565 
2421 5 2.45951 22.72 3.4 -19.0901 
2422 5 3.68927 22.01 3.4 2.0326 
2423 5 4.91902 22.72 3.4 10.7202 
2424 5 6.14878 22.01 3.4 16.9529 
2425 5 7.37854 22.72 3.4 6.82104 
2426 5 8.60829 22.01 3.4 -16.2899 
2427 5 9.83805 22.72 3.4 -5.02458 
2446 5 0 24.14 3.4 0.503771 
2447 5 1.22976 24.85 3.4 -19.9141 
2448 5 2.45951 24.14 3.4 -29.0254 
2449 5 3.68927 24.85 3.4 -20.8585 
2450 5 4.91902 24.14 3.4 -6.21557 
2451 5 6.14878 24.85 3.4 3.86193 
2452 5 7.37854 24.14 3.4 12.5703 
2453 5 8.60829 24.85 3.4 3.23598 
2454 5 9.83805 24.14 3.4 7.37959 
1511 5 12.2976 17.75 0 2.43404 
1513 5 14.7571 17.75 0 17.7957 
1515 5 17.2166 17.75 0 -1.48477 
1517 5 19.6761 17.75 0 -32.0741 
1537 5 11.0678 19.88 0 -7.35221 
1538 5 12.2976 19.17 0 -9.74575 
1539 5 13.5273 19.88 0 -14.1704 
1540 5 14.7571 19.17 0 9.33674 
1541 5 15.9868 19.88 0 7.07483 
1542 5 17.2166 19.17 0 -4.1122 
1543 5 18.4463 19.88 0 -0.389251 
1544 5 19.6761 19.17 0 -11.9919 
1545 5 20.9059 19.88 0 19.8427 
1564 5 11.0678 21.3 0 17.6477 
1565 5 12.2976 22.01 0 7.56125 
1566 5 13.5273 21.3 0 -10.7353 
1567 5 14.7571 22.01 0 4.37989 
1568 5 15.9868 21.3 0 8.22253 
1569 5 17.2166 22.01 0 0.017787 
1570 5 18.4463 21.3 0 -3.76262 
1571 5 19.6761 22.01 0 -6.72706 
1572 5 20.9059 21.3 0 3.59448 
1591 5 11.0678 24.14 0 -2.29157 
1592 5 12.2976 23.43 0 -0.00213534 
1593 5 13.5273 24.14 0 -2.75415 
1594 5 14.7571 23.43 0 1.19525 
1595 5 15.9868 24.14 0 -6.07142 
1596 5 17.2166 23.43 0 1.36306 
1597 5 18.4463 24.14 0 20.1527 
1598 5 19.6761 23.43 0 -1.44078 
1599 5 20.9059 24.14 0 -5.70999 
1618 5 11.0678 25.56 0 -4.86059 
1620 5 13.5273 25.56 0 0.00422484 
1622 5 15.9868 25.56 0 -2.62979 
1624 5 18.4463 25.56 0 12.7739 
1626 5 20.9059 25.56 0 0.000408729 
2374 5 11.0678 17.75 3.4 -2.65433 
2375 5 12.2976 18.46 3.4 -5.2307 
2376 5 13.5273 17.75 3.4 -2.88701 
2377 5 14.7571 18.46 3.4 -4.80867 
2378 5 15.9868 17.75 3.4 -5.7041 
2379 5 17.2166 18.46 3.4 14.9291 
2380 5 18.4463 17.75 3.4 26.012 
2381 5 19.6761 18.46 3.4 22.2884 
2382 5 20.9059 17.75 3.4 2.22634 
2401 5 11.0678 20.59 3.4 20.0064 
2402 5 12.2976 19.88 3.4 9.29877 
2403 5 13.5273 20.59 3.4 -0.00258301 
2404 5 14.7571 19.88 3.4 -0.0390254 
2405 5 15.9868 20.59 3.4 -10.0382 
2406 5 17.2166 19.88 3.4 -7.56827 
2407 5 18.4463 20.59 3.4 -1.68578 
2408 5 19.6761 19.88 3.4 8.11633 
2409 5 20.9059 20.59 3.4 -9.21885 
2428 5 11.0678 22.01 3.4 1.2357 
2429 5 12.2976 22.72 3.4 -4.72037 
2430 5 13.5273 22.01 3.4 -10.9212 
2431 5 14.7571 22.72 3.4 1.63339 
2432 5 15.9868 22.01 3.4 -4.26361 
2433 5 17.2166 22.72 3.4 0.00132339 
2434 5 18.4463 22.01 3.4 13.8507 
2435 5 19.6761 22.72 3.4 4.62326 
2436 5 20.9059 22.01 3.4 -0.00469994 
2455 5 11.0678 24.85 3.4 8.76744 
2456 5 12.2976 24.14 3.4 9.36306 
2457 5 13.5273 24.85 3.4 9.13006 
2458 5 14.7571 24.14 3.4 8.08659 
2459 5 15.9868 24.85 3.4 -11.1123 
2460 5 17.2166 24.14 3.4 -9.15526 
2461 5 18.4463 24.85 3.4 0.759317 
2462 5 19.6761 24.14 3.4 4.04859 
2463 5 20.9059 24.85 3.4 -2.13415 
1519 5 22.1356 17.75 0 32.3649 
1521 5 24.5951 17.75 0 -10.3421 
1523 5 27.0546 17.75 0 0.00226389 
1525 5 29.5141 17.75 0 14.2129 
1527 5 31.9737 17.75 0 -24.7895 
1546 5 22.1356 19.17 0 24.81 
1547 5 23.3654 19.88 0 3.24939 
1548 5 24.5951 19.17 0 -16.5144 
1549 5 25.8249 19.88 0 -21.8257 
1550 5 27.0546 19.17 0 -21.0159 
1551 5 28.2844 19.88 0 -12.8974 
1552 5 29.5141 19.17 0 -9.98239 
1553 5 30.7439 19.88 0 2.63353 
1554 5 31.9737 19.17 0 45.1621 
1573 5 22.1356 22.01 0 0.00464844 
1574 5 23.3654 21.3 0 -1.56269 
1575 5 24.5951 22.01 0 -2.39837 
1576 5 25.8249 21.3 0 -0.00843766 
1577 5 27.0546 22.01 0 11.6108 
1578 5 28.2844 21.3 0 -1.70006 
1579 5 29.5141 22.01 0 -12.9956 
1580 5 30.7439 21.3 0 -7.4502 
1581 5 31.9737 22.01 0 14.662 
1600 5 22.1356 23.43 0 -14.6504 
1601 5 23.3654 24.14 0 -9.05302 
1602 5 24.5951 23.43 0 -7.80824 
1603 5 25.8249 24.14 0 7.05652 
1604 5 27.0546 23.43 0 25.1613 
1605 5 28.2844 24.14 0 22.2309 
1606 5 29.5141 23.43 0 -0.0216313 
1607 5 30.7439 24.14 0 -14.0215 
1608 5 31.9737 23.43 0 25.038 
1628 5 23.3654 25.56 0 6.80875 
1630 5 25.8249 25.56 0 11.7839 
1632 5 28.2844 25.56 0 1.2338 
1634 5 30.7439 25.56 0 -21.8452 
2383 5 22.1356 18.46 3.4 -19.6153 
2384 5 23.3654 17.75 3.4 4.95135 
2385 5 24.5951 18.46 3.4 5.69302 
2386 5 25.8249 17.75 3.4 4.73725 
2387 5 27.0546 18.46 3.4 8.94796 
2388 5 28.2844 17.75 3.4 -0.0134637 
2389 5 29.5141 18.46 3.4 -13.6791 
2390 5 30.7439 17.75 3.4 -13.0126 
2391 5 31.9737 18.46 3.4 -0.606935 
2410 5 22.1356 19.88 3.4 -31.5699 
2411 5 23.3654 20.59 3.4 -19.3303 
2412 5 24.5951 19.88 3.4 -5.05669 
2413 5 25.8249 20.59 3.4 6.26244 
2414 5 27.0546 19.88 3.4 20.8114 
2415 5 28.2844 20.59 3.4 19.5822 
2416 5 29.5141 19.88 3.4 -12.6655 
2417 5 30.7439 20.59 3.4 -32.1852 
2418 5 31.9737 19.88 3.4 12.1341 
2437 5 22.1356 22.72 3.4 -0.814096 
2438 5 23.3654 22.01 3.4 -9.69164 
2439 5 24.5951 22.72 3.4 6.22375 
2440 5 25.8249 22.01 3.4 7.943 
2441 5 27.0546 22.72 3.4 18.4311 
2442 5 28.2844 22.01 3.4 24.2843 
2443 5 29.5141 22.72 3.4 -6.2213 
2444 5 30.7439 22.01 3.4 -18.1095 
2445 5 31.9737 22.72 3.4 -1.59757 
2464 5 22.1356 24.14 3.4 -9.1673 
2465 5 23.3654 24.85 3.4 -0.785171 
2466 5 24.5951 24.14 3.4 9.73887 
2467 5 25.8249 24.85 3.4 -10.3322 
2468 5 27.0546 24.14 3.4 -2.57418 
2469 5 28.2844 24.85 3.4 2.27965 
2470 5 29.5141 24.14 3.4 -18.0672 
2471 5 30.7439 24.85 3.4 -7.33476 
2472 5 31.9737 24.14 3.4 16.4552 
1609 5 0 26.27 0 0.57665 
1611 5 2.45951 26.27 0 14.2106 
1613 5 4.91902 26.27 0 17.7157 
1615 5 7.37854 26.27 0 -5.82745 
1617 5 9.83805 26.27 0 -9.34221 
1636 5 0 27.69 0 -25.2512 
1637 5 1.22976 28.4 0 -19.7811 
1638 5 2.45951 27.69 0 12.7589 
1639 5 3.68927 28.4 0 7.91018 
1640 5 4.91902 27.69 0 0.0062857 
1641 5 6.14878 28.4 0 -15.445 
1642 5 7.37854 27.69 0 -12.4295 
1643 5 8.60829 28.4 0 -13.8215 
1644 5 9.83805 27.69 0 -12.8129 
1663 5 0 30.53 0 -15.7063 
1664 5 1.22976 29.82 0 -15.947 
1665 5 2.45951 30.53 0 12.7181 
1666 5 3.68927 29.82 0 5.16217 
1667 5 4.91902 30.53 0 -0.011508 
1668 5 6.14878 29.82 0 -0.78017 
1669 5 7.37854 30.53 0 9.82712 
1670 5 8.60829 29.82 0 -2.40901 
1671 5 9.83805 30.53 0 -1.82786 
1690 5 0 31.95 0 -7.60957 
1691 5 1.22976 32.66 0 -1.11783 
1692 5 2.45951 31.95 0 20.3454 
1693 5 3.68927 32.66 0 2.85155 
1694 5 4.91902 31.95 0 -0.000626478 
1695 5 6.14878 32.66 0 -8.92813 
1696 5 7.37854 31.95 0 9.41845 
1697 5 8.60829 32.66 0 21.8717 
1698 5 9.83805 31.95 0 14.0605 
2473 5 0 26.98 3.4 21.9885 
2474 5 1.22976 26.27 3.4 2.02273 
2475 5 2.45951 26.98 3.4 6.11012 
2476 5 3.68927 26.27 3.4 -3.04247 
2477 5 4.91902 26.98 3.4 -0.00411413 
2478 5 6.14878 26.27 3.4 6.70815 
2479 5 7.37854 26.98 3.4 11.2019 
2480 5 8.60829 26.27 3.4 -4.83934 
2481 5 9.83805 26.98 3.4 -8.79179 
2500 5 0 28.4 3.4 -51.7926 
2501 5 1.22976 29.11 3.4 24.7883 
2502 5 2.45951 28.4 3.4 19.1981 
2503 5 3.68927 29.11 3.4 0.403198 
2504 5 4.91902 28.4 3.4 -2.6399 
2505 5 6.14878 29.11 3.4 0.678299 
2506 5 7.37854 28.4 3.4 12.0757 
2507 5 8.60829 29.11 3.4 -3.84011 
2508 5 9.83805 28.4 3.4 -8.39718 
2527 5 0 31.24 3.4 -30.0156 
2528 5 1.22976 30.53 3.4 30.6292 
2529 5 2.45951 31.24 3.4 21.9398 
2530 5 3.68927 30.53 3.4 -11.5588 
2531 5 4.91902 31.24 3.4 -25.0947 
2532 5 6.14878 30.53 3.4 -8.60807 
2533 5 7.37854 31.24 3.4 -11.1094 
2534 5 8.60829 30.53 3.4 -4.34425 
2535 5 9.83805 31.24 3.4 9.67735 
1619 5 12.2976 26.27 0 -3.05753 
1621 5 14.7571 26.27 0 11.6623 
1623 5 17.2166 26.27 0 -14.85 
1625 5 19.6761 26.27 0 -4.34576 
1645 5 11.0678 28.4 0 -7.24373 
1646 5 12.2976 27.69 0 5.67376 
1647 5 13.5273 28.4 0 14.5227 
1648 5 14.7571 27.69 0 18.7304 
1649 5 15.9868 28.4 0 1.96011 
1650 5 17.2166 27.69 0 -27.1946 
1651 5 18.4463 28.4 0 -25.8354 
1652 5 19.6761 27.69 0 -11.822 
1653 5 20.9059 28.4 0 2.28897 
1672 5 11.0678 29.82 0 -0.0146869 
1673 5 12.2976 30.53 0 2.56792 
1674 5 13.5273 29.82 0 2.68198 
1675 5 14.7571 30.53 0 5.50333 
1676 5 15.9868 29.82 0 11.6696 
1677 5 17.2166 30.53 0 5.47495 
1678 5 18.4463 29.82 0 -1.65713 
1679 5 19.6761 30.53 0 13.8292 
1680 5 20.9059 29.82 0 12.4477 
1699 5 11.0678 32.66 0 0.00709458 
1700 5 12.2976 31.95 0 -2.11633 
1701 5 13.5273 32.66 0 -15.0344 
1702 5 14.7571 31.95 0 -5.00046 
1703 5 15.9868 32.66 0 -6.58794 
1704 5 17.2166 31.95 0 -6.95161 
1705 5 18.4463 32.66 0 -4.40711 
1706 5 19.6761 31.95 0 10.7226 
1707 5 20.9059 32.66 0 1.32943 
2482 5 11.0678 26.27 3.4 -7.8861 
2483 5 12.2976 26.98 3.4 -11.1858 
2484 5 13.5273 26.27 3.4 -4.32297 
2485 5 14.7571 26.98 3.4 -0.0060425 
2486 5 15.9868 26.27 3.4 -1.67952 
2487 5 17.2166 26.98 3.4 2.29994 
2488 5 18.4463 26.27 3.4 3.35746 
2489 5 19.6761 26.98 3.4 7.80203 
2490 5 20.9059 26.27 3.4 9.60792 
2509 5 11.0678 29.11 3.4 -1.25272 
2510 5 12.2976 28.4 3.4 -14.6408 
2511 5 13.5273 29.11 3.4 -17.6539 
2512 5 14.7571 28.4 3.4 3.65088 
2513 5 15.9868 29.11 3.4 18.3922 
2514 5 17.2166 28.4 3.4 5.24342 
2515 5 18.4463 29.11 3.4 -9.89929 
2516 5 19.6761 28.4 3.4 -10.5053 
2517 5 20.9059 29.11 3.4 -18.3938 
2536 5 11.0678 30.53 3.4 24.4763 
2537 5 12.2976 31.24 3.4 17.7535 
2538 5 13.5273 30.53 3.4 -13.5342 
2539 5 14.7571 31.24 3.4 3.92514 
2540 5 15.9868 30.53 3.4 11.7323 
2541 5 17.2166 31.24 3.4 0.00663919 
2542 5 18.4463 30.53 3.4 5.25778 
2543 5 19.6761 31.24 3.4 7.03234 
2544 5 20.9059 30.53 3.4 -20.3857 
1627 5 22.1356 26.27 0 7.69255 
1629 5 24.5951 26.27 0 20.3531 
1631 5 27.0546 26.27 0 9.09435 
1633 5 29.5141 26.27 0 -24.5511 
1635 5 31.9737 26.27 0 42.098 
1654 5 22.1356 27.69 0 -0.0023976 
1655 5 23.3654 28.4 0 -5.50448 
1656 5 24.5951 27.69 0 9.95231 
1657 5 25.8249 28.4 0 -5.73317 
1658 5 27.0546 27.69 0 -0.390563 
1659 5 28.2844 28.4 0 -13.4173 
1660 5 29.5141 27.69 0 -23.743 
1661 5 30.7439 28.4 0 -2.19923 
1662 5 31.9737 27.69 0 -12.8887 
1681 5 22.1356 30.53 0 0.00200378 
1682 5 23.3654 29.82 0 -17.8749 
1683 5 24.5951 30.53 0 -13.6491 
1684 5 25.8249 29.82 0 -8.7486 
1685 5 27.0546 30.53 0 2.81969 
1686 5 28.2844 29.82 0 -6.52452 
1687 5 29.5141 30.53 0 13.2384 
1688 5 30.7439 29.82 0 23.089 
1689 5 31.9737 30.53 0 20.3147 
1708 5 22.1356 31.95 0 0.00311842 
1709 5 23.3654 32.66 0 -2.22405 
1710 5 24.5951 31.95 0 -0.393687 
1711 5 25.8249 32.66 0 3.51059 
1712 5 27.0546 31.95 0 10.0042 
1713 5 28.2844 32.66 0 4.10082 
1714 5 29.5141 31.95 0 -1.85987 
1715 5 30.7439 32.66 0 -1.91961 
1716 5 31.9737 31.95 0 4.59567 
2491 5 22.1356 26.98 3.4 8.00089 
2492 5 23.3654 26.27 3.4 7.18719 
2493 5 24.5951 26.98 3.4 4.64245 
2494 5 25.8249 26.27 3.4 -24.3517 
2495 5 27.0546 26.98 3.4 -28.2344 
2496 5 28.2844 26.27 3.4 2.33256 
2497 5 29.5141 26.98 3.4 15.6188 
2498 5 30.7439 26.27 3.4 17.9758 
2499 5 31.9737 26.98 3.4 17.6119 
2518 5 22.1356 28.4 3.4 4.0984 
2519 5 23.3654 29.11 3.4 14.6607 
2520 5 24.5951 28.4 3.4 24.6469 
2521 5 25.8249 29.11 3.4 21.2839 
2522 5 27.0546 28.4 3.4 -19.1665 
2523 5 28.2844 29.11 3.4 -13.918 
2524 5 29.5141 28.4 3.4 6.08486 
2525 5 30.7439 29.11 3.4 22.5519 
2526 5 31.9737 28.4 3.4 38.0626 
2545 5 22.1356 31.24 3.4 -28.9514 
2546 5 23.3654 30.53 3.4 -9.96463 
2547 5 24.5951 31.24 3.4 10.9332 
2548 5 25.8249 30.53 3.4 17.856 
2549 5 27.0546 31.24 3.4 -3.11324 
2550 5 28.2844 30.53 3.4 -21.6611 
2551 5 29.5141 31.24 3.4 -30.048 
2552 5 30.7439 30.53 3.4 -5.1669 
2553 5 31.9737 31.24 3.4 -32.7179 
14 2 5.90071 5.06115 10.8699 0.1578 
1717 5 0 0.71 6.8 35.7489 
1718 5 1.22976 0 6.8 19.9171 
1719 5 2.45951 0.71 6.8 5.78588 
1720 5 3.68927 0 6.8 -8.86421 
1721 5 4.91902 0.71 6.8 -8.74164 
1722 5 6.14878 0 6.8 -13.5808 
1723 5 7.37854 0.71 6.8 -14.477 
1724 5 8.60829 0 6.8 -7.72286 
1725 5 9.83805 0.71 6.8 0.00159821 
1744 5 0 2.13 6.8 -19.3004 
1745 5 1.22976 2.84 6.8 8.37265 
1746 5 2.45951 2.13 6.8 5.74083 
1747 5 3.68927 2.84 6.8 2.61812 
1748 5 4.91902 2.13 6.8 -0.00341727 
1749 5 6.14878 2.84 6.8 -2.55309 
1750 5 7.37854 2.13 6.8 0.722366 
1751 5 8.60829 2.84 6.8 3.3863 
1752 5 9.83805 2.13 6.8 4.02689 
1771 5 0 4.97 6.8 -4.17444 
1772 5 1.22976 4.26 6.8 -0.380297 
1773 5 2.45951 4.97 6.8 -11.0272 
1774 5 3.68927 4.26 6.8 -8.59367 
1775 5 4.91902 4.97 6.8 0.528651 
1776 5 6.14878 4.26 6.8 0.00362629 
1777 5 7.37854 4.97 6.8 13.554 
1778 5 8.60829 4.26 6.8 7.39462 
1779 5 9.83805 4.97 6.8 3.21819 
1798 5 0 6.39 6.8 -19.5828 
1799 5 1.22976 7.1 6.8 0.00642928 
1800 5 2.45951 6.39 6.8 -9.26599 
1801 5 3.68927 7.1 6.8 -4.80771 
1802 5 4.91902 6.39 6.8 2.1069 
1803 5 6.14878 7.1 6.8 -5.35171 
1804 5 7.37854 6.39 6.8 23.0227 
1805 5 8.60829 7.1 6.8 15.1888 
1806 5 9.83805 6.39 6.8 -0.00264186 
1826 5 1.22976 8.52 6.8 6.06267 
1828 5 3.68927 8.52 6.8 14.093 
1830 5 6.14878 8.52 6.8 -17.4313 
1832 5 8.60829 8.52 6.8 -2.23181 
13 1 5.34757 7.66882 10.3818 0.4374 
15 3 1.65565 8.49011 10.9181 0.1848 
12 4 9.71469 6.47975 11.6269 -0.78 
1048 4 2.70466 1.85134 10.8724 -0.78 
11 3 9.28955 1.48756 12.0066 0.1848 
727 3 0.108737 4.81316 13.7179 0.1848 
1726 5 11.0678 0 6.8 -3.36363 
1727 5 12.2976 0.71 6.8 -0.900738 
1728 5 13.5273 0 6.8 17.0984 
1729 5 14.7571 0.71 6.8 22.2677 
1730 5 15.9868 0 6.8 11.1507 
1731 5 17.2166 0.71 6.8 -12.5251 
1732 5 18.4463 0 6.8 -24.6224 
1733 5 19.6761 0.71 6.8 -10.8727 
1734 5 20.9059 0 6.8 6.17714 
1753 5 11.0678 2.84 6.8 -2.91369 
1754 5 12.2976 2.13 6.8 -12.6979 
1755 5 13.5273 2.84 6.8 -10.2306 
1756 5 14.7571 2.13 6.8 7.53238 
1757 5 15.9868 2.84 6.8 1.27337 
1758 5 17.2166 2.13 6.8 -0.01087 
1759 5 18.4463 2.84 6.8 9.7272 
1760 5 19.6761 2.13 6.8 -0.995981 
1761 5 20.9059 2.84 6.8 3.39228 
1780 5 11.0678 4.26 6.8 -9.25012 
1781 5 12.2976 4.97 6.8 -9.80864 