ITEM: TIMESTEP
0
ITEM: NUMBER OF ATOMS
6
ITEM: BOX BOUNDS pp pp pp
0 30
0 30
0 30
ITEM: ATOMS id type x y z q 
4 4 5 5 15 -1 
3 3 25 5 15 1 
5 5 5 15 15 -5.04083 
6 6 25 15 15 5.04083 
1 1 5 25 15 1 
2 2 25 25 15 -1 
ITEM: TIMESTEP
1
ITEM: NUMBER OF ATOMS
6
ITEM: BOX BOUNDS pp pp pp
0 30
0 30
0 30
ITEM: ATOMS id type x y z q 
4 4 5 5 15 -1 
3 3 25 5 15 1 
5 5 5 15 15 -5.04091 
6 6 25 15 15 5.04091 
1 1 5 25 15 1 
2 2 25 25 15 -1 
