 # Liu Group
           6  atoms      
           0  bonds      
           0  angles      
           0  dihedrals      
           6  atom types 
           0  bond types 
           0  angle types 
           0  dihedral types 
                         
       0.000    30.000   xlo xhi  
       0.000    30.000   ylo yhi  
       0.000    30.000   zlo zhi    

 Atoms 

      1		5	1	1	5	25	15
      2		5	2	-1	25	25	15
      3		5	3	1	25	5	15
      4		5	4	-1	5	5	15
      5		5	5	0	5	15	15
      6		5	6	0	25	15	15
