 # Liu Group                                                                                        
        3822  atoms      
         642  bonds      
         321  angles      
           0  dihedrals      
           7  atom types      
           2  bond types      
           1  angle types      
           0  dihedral types      
                                                                                                    
       0.000      31.974   xlo xhi                                                                  
       0.000      34.080   ylo yhi                                                                  
    -150.000     273.200   zlo zhi
                                                                                                    
 Atoms                                                                                              
                                                                                                    
      1      5      1    0.437400000   12.413646000   10.884454000   14.217070000
      2      5      2    0.157800000    9.789850000   11.140094000   12.496148000
      3      5      3    0.184800000   12.428752000    7.222992000   16.726990000
      4      5      4   -0.780000000   23.088186000    8.022448000   12.888904000
      5      5      1    0.437400000   31.181516000   10.428950000   13.587266000
      6      5      2    0.157800000   28.415956000   10.929772000   15.007230000
      7      5      3    0.184800000    2.441362000   12.967920000   15.258222000
      8      5      4   -0.780000000   28.673920000   14.344890000   10.220952000
      9      5      1    0.437400000   11.925606000    1.682576000   14.420420000
     10      5      2    0.157800000   13.172432000    2.433228000   17.212706000
     11      5      3    0.184800000    8.063118000   33.612876000   14.827120000
     12      5      4   -0.780000000    9.686432000    6.078422000   11.675776000
     13      5      1    0.437400000    3.943828000    7.616910000   13.144544000
     14      5      2    0.157800000    4.814166000    6.602484000   10.294158000
     15      5      3    0.184800000    6.042400000    5.461400000   16.408602000
     16      5      4   -0.780000000    4.739798000   12.032510000    9.689918000
     17      5      1    0.437400000   22.927830000    2.974720000   24.013892000
     18      5      2    0.157800000   21.319622000    5.525310000   23.106370000
     19      5      3    0.184800000   21.246416000   33.314242000   22.317372000
     20      5      4   -0.780000000   15.456924000   11.717608000   19.418182000
     21      5      1    0.437400000   12.413646000   10.884454000   46.986632000
     22      5      2    0.157800000    9.789850000   11.140094000   45.265710000
     23      5      3    0.184800000   12.428752000    7.222992000   49.496552000
     24      5      4   -0.780000000   23.088186000    8.022448000   45.658466000
     25      5      1    0.437400000   30.394842000   26.615312000   24.743628000
     26      5      2    0.157800000   27.669952000   26.503760000   26.318138000
     27      5      3    0.184800000   31.462720000   30.746222000   23.522366000
     28      5      4   -0.780000000    2.700488000    0.549626000   27.240766000
     29      5      1    0.437400000    0.340466000   30.397622000   44.565024000
     30      5      2    0.157800000   30.220542000   29.706232000   42.317716000
     31      5      3    0.184800000    0.769244000    0.692552000   45.176236000
     32      5      4   -0.780000000    1.485036000   31.912870000   39.251198000
     33      5      1    0.437400000    2.800420000    0.694876000   34.446328000
     34      5      2    0.157800000    0.696038000    0.959812000   32.118842000
     35      5      3    0.184800000    1.896384000    3.400012000   37.847502000
     36      5      4   -0.780000000    1.109710000    5.462562000   32.201344000
     37      5      1    0.437400000   30.349524000    8.544186000   28.358610000
     38      5      2    0.157800000    0.013944000   10.282538000   30.409540000
     39      5      3    0.184800000   28.246304000   11.034352000   25.345544000
     40      5      4   -0.780000000   28.039468000   21.697728000   27.391826000
     41      5      1    0.437400000   31.943788000   10.659026000   39.576558000
     42      5      2    0.157800000    0.671636000   13.425748000   40.905886000
     43      5      3    0.184800000    3.035144000    9.383150000   36.630888000
     44      5      4   -0.780000000    0.409024000   15.201284000   36.009218000
     45      5      1    0.437400000   31.181516000   10.428950000   46.356828000
     46      5      2    0.157800000   28.415956000   10.929772000   47.776792000
     47      5      3    0.184800000    2.441362000   12.967920000   48.027784000
     48      5      4   -0.780000000   28.673920000   14.344890000   42.990514000
     49      5      1    0.437400000    4.750256000   15.076950000   32.133948000
     50      5      2    0.157800000    3.118808000   12.385758000   32.226908000
     51      5      3    0.184800000    2.432066000   18.386326000   30.294502000
     52      5      4   -0.780000000    9.154236000   20.117408000   29.383494000
     53      5      1    0.437400000    5.462562000   33.120188000   22.662486000
     54      5      2    0.157800000    8.118894000   33.101596000   20.971776000
     55      5      3    0.184800000    3.047926000    2.697002000   21.960638000
     56      5      4   -0.780000000    9.559774000    3.376772000   20.559266000
     57      5      1    0.437400000   11.925606000    1.682576000   47.189982000
     58      5      2    0.157800000   13.172432000    2.433228000   49.982268000
     59      5      3    0.184800000    8.063118000   33.612876000   47.596682000
     60      5      4   -0.780000000    9.686432000    6.078422000   44.445338000
     61      5      1    0.437400000    9.944396000    8.720810000   21.627144000
     62      5      2    0.157800000   10.892588000   11.604894000   22.460298000
     63      5      3    0.184800000    5.549712000    8.222312000   22.001308000
     64      5      4   -0.780000000    7.730786000   10.884454000   16.976820000
     65      5      1    0.437400000    7.296198000    3.443006000   29.221976000
     66      5      2    0.157800000    5.876234000    1.292144000   31.031210000
     67      5      3    0.184800000    4.414438000    6.315470000   27.447602000
     68      5      4   -0.780000000   10.200036000    8.746374000   27.261682000
     69      5      1    0.437400000    7.191618000   32.855252000   38.829392000
     70      5      2    0.157800000   10.258136000   33.002826000   38.127544000
     71      5      3    0.184800000    6.033104000    1.726732000   41.935418000
     72      5      4   -0.780000000    8.315272000    2.781828000   34.861162000
     73      5      1    0.437400000    3.943828000    7.616910000   45.914106000
     74      5      2    0.157800000    4.814166000    6.602484000   43.063720000
     75      5      3    0.184800000    6.042400000    5.461400000   49.178164000
     76      5      4   -0.780000000    4.739798000   12.032510000   42.459480000
     77      5      1    0.437400000    7.988750000   13.812694000   25.639530000
     78      5      2    0.157800000    7.542542000   12.678582000   28.542206000
     79      5      3    0.184800000    5.360306000   17.281264000   24.766868000
     80      5      4   -0.780000000    4.736312000   21.045846000   17.367252000
     81      5      1    0.437400000   11.859372000    8.551158000   33.320350000
     82      5      2    0.157800000   12.642560000    5.753062000   34.533478000
     83      5      3    0.184800000    7.482118000    8.953210000   32.707976000
     84      5      4   -0.780000000    2.806230000   11.864020000   26.872412000
     85      5      1    0.437400000   10.111724000   10.591630000   40.764122000
     86      5      2    0.157800000   12.567030000    9.742208000   42.543144000
     87      5      3    0.184800000    8.072414000    7.098658000   38.935134000
     88      5      4   -0.780000000    9.220470000   13.624450000   35.796572000
     89      5      1    0.437400000   16.081326000   28.826598000   34.159314000
     90      5      2    0.157800000   17.656998000   26.350376000   35.300398000
     91      5      3    0.184800000   17.825488000   30.326740000   30.364222000
     92      5      4   -0.780000000   15.835736000    0.709982000   34.678728000
     93      5      1    0.437400000   18.208948000    7.521626000   16.954742000
     94      5      2    0.157800000   21.299868000    7.910896000   17.407922000
     95      5      3    0.184800000   16.171962000    5.908770000   20.554618000
     96      5      4   -0.780000000   13.214264000   15.071140000   43.122982000
     97      5      1    0.437400000   12.543790000    3.611496000   25.037614000
     98      5      2    0.157800000    9.522590000    4.459756000   24.776164000
     99      5      3    0.184800000   14.054390000    4.027492000   29.190602000
    100      5      4   -0.780000000   17.718584000    2.942184000   25.466392000
    101      5      1    0.437400000   12.765732000    3.171098000   38.441284000
    102      5      2    0.157800000   10.390604000    3.039792000   40.504996000
    103      5      3    0.184800000   16.706074000    2.491328000   40.367880000
    104      5      4   -0.780000000   14.384398000    8.477952000   38.260012000
    105      5      1    0.437400000    8.692922000   16.023980000   18.874366000
    106      5      2    0.157800000    8.665034000   18.574570000   20.720784000
    107      5      3    0.184800000   12.433400000   15.703268000   16.506210000
    108      5      4   -0.780000000   11.523554000   23.023570000   18.242238000
    109      5      1    0.437400000   14.757400000   14.339080000   37.926518000
    110      5      2    0.157800000   14.107842000   12.548438000   35.418922000
    111      5      3    0.184800000   12.603052000   18.218998000   37.826586000
    112      5      4   -0.780000000   16.047220000   19.428342000   33.401690000
    113      5      1    0.437400000   22.927830000    2.974720000   56.783454000
    114      5      2    0.157800000   21.319622000    5.525310000   55.875932000
    115      5      3    0.184800000   21.246416000   33.314242000   55.086934000
    116      5      4   -0.780000000   15.456924000   11.717608000   52.187744000
    117      5      1    0.437400000   12.413646000   10.884454000   79.756194000
    118      5      2    0.157800000    9.789850000   11.140094000   78.035272000
    119      5      3    0.184800000   12.428752000    7.222992000   82.266114000
    120      5      4   -0.780000000   23.088186000    8.022448000   78.428028000
    121      5      1    0.437400000   30.394842000   26.615312000   57.513190000
    122      5      2    0.157800000   27.669952000   26.503760000   59.087700000
    123      5      3    0.184800000   31.462720000   30.746222000   56.291928000
    124      5      4   -0.780000000    2.700488000    0.549626000   60.010328000
    125      5      1    0.437400000    0.340466000   30.397622000   77.334586000
    126      5      2    0.157800000   30.220542000   29.706232000   75.087278000
    127      5      3    0.184800000    0.769244000    0.692552000   77.945798000
    128      5      4   -0.780000000    1.485036000   31.912870000   72.020760000
    129      5      1    0.437400000    2.800420000    0.694876000   67.215890000
    130      5      2    0.157800000    0.696038000    0.959812000   64.888404000
    131      5      3    0.184800000    1.896384000    3.400012000   70.617064000
    132      5      4   -0.780000000    1.109710000    5.462562000   64.970906000
    133      5      1    0.437400000   30.349524000    8.544186000   61.128172000
    134      5      2    0.157800000    0.013944000   10.282538000   63.179102000
    135      5      3    0.184800000   28.246304000   11.034352000   58.115106000
    136      5      4   -0.780000000   28.039468000   21.697728000   60.161388000
    137      5      1    0.437400000   31.943788000   10.659026000   72.346120000
    138      5      2    0.157800000    0.671636000   13.425748000   73.675448000
    139      5      3    0.184800000    3.035144000    9.383150000   69.400450000
    140      5      4   -0.780000000    0.409024000   15.201284000   68.778780000
    141      5      1    0.437400000   31.181516000   10.428950000   79.126390000
    142      5      2    0.157800000   28.415956000   10.929772000   80.546354000
    143      5      3    0.184800000    2.441362000   12.967920000   80.797346000
    144      5      4   -0.780000000   28.673920000   14.344890000   75.760076000
    145      5      1    0.437400000    4.750256000   15.076950000   64.903510000
    146      5      2    0.157800000    3.118808000   12.385758000   64.996470000
    147      5      3    0.184800000    2.432066000   18.386326000   63.064064000
    148      5      4   -0.780000000    9.154236000   20.117408000   62.153056000
    149      5      1    0.437400000    5.462562000   33.120188000   55.432048000
    150      5      2    0.157800000    8.118894000   33.101596000   53.741338000
    151      5      3    0.184800000    3.047926000    2.697002000   54.730200000
    152      5      4   -0.780000000    9.559774000    3.376772000   53.328828000
    153      5      1    0.437400000   11.925606000    1.682576000   79.959544000
    154      5      2    0.157800000   13.172432000    2.433228000   82.751830000
    155      5      3    0.184800000    8.063118000   33.612876000   80.366244000
    156      5      4   -0.780000000    9.686432000    6.078422000   77.214900000
    157      5      1    0.437400000    9.944396000    8.720810000   54.396706000
    158      5      2    0.157800000   10.892588000   11.604894000   55.229860000
    159      5      3    0.184800000    5.549712000    8.222312000   54.770870000
    160      5      4   -0.780000000    7.730786000   10.884454000   49.746382000
    161      5      1    0.437400000    7.296198000    3.443006000   61.991538000
    162      5      2    0.157800000    5.876234000    1.292144000   63.800772000
    163      5      3    0.184800000    4.414438000    6.315470000   60.217164000
    164      5      4   -0.780000000   10.200036000    8.746374000   60.031244000
    165      5      1    0.437400000    7.191618000   32.855252000   71.598954000
    166      5      2    0.157800000   10.258136000   33.002826000   70.897106000
    167      5      3    0.184800000    6.033104000    1.726732000   74.704980000
    168      5      4   -0.780000000    8.315272000    2.781828000   67.630724000
    169      5      1    0.437400000    3.943828000    7.616910000   78.683668000
    170      5      2    0.157800000    4.814166000    6.602484000   75.833282000
    171      5      3    0.184800000    6.042400000    5.461400000   81.947726000
    172      5      4   -0.780000000    4.739798000   12.032510000   75.229042000
    173      5      1    0.437400000    7.988750000   13.812694000   58.409092000
    174      5      2    0.157800000    7.542542000   12.678582000   61.311768000
    175      5      3    0.184800000    5.360306000   17.281264000   57.536430000
    176      5      4   -0.780000000    4.736312000   21.045846000   50.136814000
    177      5      1    0.437400000   11.859372000    8.551158000   66.089912000
    178      5      2    0.157800000   12.642560000    5.753062000   67.303040000
    179      5      3    0.184800000    7.482118000    8.953210000   65.477538000
    180      5      4   -0.780000000    2.806230000   11.864020000   59.641974000
    181      5      1    0.437400000   10.111724000   10.591630000   73.533684000
    182      5      2    0.157800000   12.567030000    9.742208000   75.312706000
    183      5      3    0.184800000    8.072414000    7.098658000   71.704696000
    184      5      4   -0.780000000    9.220470000   13.624450000   68.566134000
    185      5      1    0.437400000   16.081326000   28.826598000   66.928876000
    186      5      2    0.157800000   17.656998000   26.350376000   68.069960000
    187      5      3    0.184800000   17.825488000   30.326740000   63.133784000
    188      5      4   -0.780000000   15.835736000    0.709982000   67.448290000
    189      5      1    0.437400000   18.208948000    7.521626000   49.724304000
    190      5      2    0.157800000   21.299868000    7.910896000   50.177484000
    191      5      3    0.184800000   16.171962000    5.908770000   53.324180000
    192      5      4   -0.780000000   13.214264000   15.071140000   75.892544000
    193      5      1    0.437400000   12.543790000    3.611496000   57.807176000
    194      5      2    0.157800000    9.522590000    4.459756000   57.545726000
    195      5      3    0.184800000   14.054390000    4.027492000   61.960164000
    196      5      4   -0.780000000   17.718584000    2.942184000   58.235954000
    197      5      1    0.437400000   12.765732000    3.171098000   71.210846000
    198      5      2    0.157800000   10.390604000    3.039792000   73.274558000
    199      5      3    0.184800000   16.706074000    2.491328000   73.137442000
    200      5      4   -0.780000000   14.384398000    8.477952000   71.029574000
    201      5      1    0.437400000    8.692922000   16.023980000   51.643928000
    202      5      2    0.157800000    8.665034000   18.574570000   53.490346000
    203      5      3    0.184800000   12.433400000   15.703268000   49.275772000
    204      5      4   -0.780000000   11.523554000   23.023570000   51.011800000
    205      5      1    0.437400000   14.757400000   14.339080000   70.696080000
    206      5      2    0.157800000   14.107842000   12.548438000   68.188484000
    207      5      3    0.184800000   12.603052000   18.218998000   70.596148000
    208      5      4   -0.780000000   16.047220000   19.428342000   66.171252000
    209      5      1    0.437400000   22.927830000    2.974720000   89.553016000
    210      5      2    0.157800000   21.319622000    5.525310000   88.645494000
    211      5      3    0.184800000   21.246416000   33.314242000   87.856496000
    212      5      4   -0.780000000   15.456924000   11.717608000   84.957306000
    213      5      1    0.437400000   30.394842000   26.615312000   90.282752000
    214      5      2    0.157800000   27.669952000   26.503760000   91.857262000
    215      5      3    0.184800000   31.462720000   30.746222000   89.061490000
    216      5      4   -0.780000000    2.700488000    0.549626000   92.779890000
    217      5      1    0.437400000    0.340466000   30.397622000  110.104148000
    218      5      2    0.157800000   30.220542000   29.706232000  107.856840000
    219      5      3    0.184800000    0.769244000    0.692552000  110.715360000
    220      5      4   -0.780000000    1.485036000   31.912870000  104.790322000
    221      5      1    0.437400000    2.800420000    0.694876000   99.985452000
    222      5      2    0.157800000    0.696038000    0.959812000   97.657966000
    223      5      3    0.184800000    1.896384000    3.400012000  103.386626000
    224      5      4   -0.780000000    1.109710000    5.462562000   97.740468000
    225      5      1    0.437400000   30.349524000    8.544186000   93.897734000
    226      5      2    0.157800000    0.013944000   10.282538000   95.948664000
    227      5      3    0.184800000   28.246304000   11.034352000   90.884668000
    228      5      4   -0.780000000   28.039468000   21.697728000   92.930950000
    229      5      1    0.437400000   31.943788000   10.659026000  105.115682000
    230      5      2    0.157800000    0.671636000   13.425748000  106.445010000
    231      5      3    0.184800000    3.035144000    9.383150000  102.170012000
    232      5      4   -0.780000000    0.409024000   15.201284000  101.548342000
    233      5      1    0.437400000   31.181516000   10.428950000  111.895952000
    234      5      2    0.157800000   28.415956000   10.929772000  113.315916000
    235      5      3    0.184800000    2.441362000   12.967920000  113.566908000
    236      5      4   -0.780000000   28.673920000   14.344890000  108.529638000
    237      5      1    0.437400000    4.750256000   15.076950000   97.673072000
    238      5      2    0.157800000    3.118808000   12.385758000   97.766032000
    239      5      3    0.184800000    2.432066000   18.386326000   95.833626000
    240      5      4   -0.780000000    9.154236000   20.117408000   94.922618000
    241      5      1    0.437400000    5.462562000   33.120188000   88.201610000
    242      5      2    0.157800000    8.118894000   33.101596000   86.510900000
    243      5      3    0.184800000    3.047926000    2.697002000   87.499762000
    244      5      4   -0.780000000    9.559774000    3.376772000   86.098390000
    245      5      1    0.437400000    9.944396000    8.720810000   87.166268000
    246      5      2    0.157800000   10.892588000   11.604894000   87.999422000
    247      5      3    0.184800000    5.549712000    8.222312000   87.540432000
    248      5      4   -0.780000000    7.730786000   10.884454000   82.515944000
    249      5      1    0.437400000    7.296198000    3.443006000   94.761100000
    250      5      2    0.157800000    5.876234000    1.292144000   96.570334000
    251      5      3    0.184800000    4.414438000    6.315470000   92.986726000
    252      5      4   -0.780000000   10.200036000    8.746374000   92.800806000
    253      5      1    0.437400000    7.191618000   32.855252000  104.368516000
    254      5      2    0.157800000   10.258136000   33.002826000  103.666668000
    255      5      3    0.184800000    6.033104000    1.726732000  107.474542000
    256      5      4   -0.780000000    8.315272000    2.781828000  100.400286000
    257      5      1    0.437400000    3.943828000    7.616910000  111.453230000
    258      5      2    0.157800000    4.814166000    6.602484000  108.602844000
    259      5      3    0.184800000    6.042400000    5.461400000  114.717288000
    260      5      4   -0.780000000    4.739798000   12.032510000  107.998604000
    261      5      1    0.437400000    7.988750000   13.812694000   91.178654000
    262      5      2    0.157800000    7.542542000   12.678582000   94.081330000
    263      5      3    0.184800000    5.360306000   17.281264000   90.305992000
    264      5      4   -0.780000000    4.736312000   21.045846000   82.906376000
    265      5      1    0.437400000   11.859372000    8.551158000   98.859474000
    266      5      2    0.157800000   12.642560000    5.753062000  100.072602000
    267      5      3    0.184800000    7.482118000    8.953210000   98.247100000
    268      5      4   -0.780000000    2.806230000   11.864020000   92.411536000
    269      5      1    0.437400000   10.111724000   10.591630000  106.303246000
    270      5      2    0.157800000   12.567030000    9.742208000  108.082268000
    271      5      3    0.184800000    8.072414000    7.098658000  104.474258000
    272      5      4   -0.780000000    9.220470000   13.624450000  101.335696000
    273      5      1    0.437400000   16.081326000   28.826598000   99.698438000
    274      5      2    0.157800000   17.656998000   26.350376000  100.839522000
    275      5      3    0.184800000   17.825488000   30.326740000   95.903346000
    276      5      4   -0.780000000   15.835736000    0.709982000  100.217852000
    277      5      1    0.437400000   18.208948000    7.521626000   82.493866000
    278      5      2    0.157800000   21.299868000    7.910896000   82.947046000
    279      5      3    0.184800000   16.171962000    5.908770000   86.093742000
    280      5      4   -0.780000000   13.214264000   15.071140000  108.662106000
    281      5      1    0.437400000   12.543790000    3.611496000   90.576738000
    282      5      2    0.157800000    9.522590000    4.459756000   90.315288000
    283      5      3    0.184800000   14.054390000    4.027492000   94.729726000
    284      5      4   -0.780000000   17.718584000    2.942184000   91.005516000
    285      5      1    0.437400000   12.765732000    3.171098000  103.980408000
    286      5      2    0.157800000   10.390604000    3.039792000  106.044120000
    287      5      3    0.184800000   16.706074000    2.491328000  105.907004000
    288      5      4   -0.780000000   14.384398000    8.477952000  103.799136000
    289      5      1    0.437400000    8.692922000   16.023980000   84.413490000
    290      5      2    0.157800000    8.665034000   18.574570000   86.259908000
    291      5      3    0.184800000   12.433400000   15.703268000   82.045334000
    292      5      4   -0.780000000   11.523554000   23.023570000   83.781362000
    293      5      1    0.437400000   14.757400000   14.339080000  103.465642000
    294      5      2    0.157800000   14.107842000   12.548438000  100.958046000
    295      5      3    0.184800000   12.603052000   18.218998000  103.365710000
    296      5      4   -0.780000000   16.047220000   19.428342000   98.940814000
    297      5      1    0.437400000   11.925606000    0.372138000   14.420420000
    298      5      2    0.157800000   13.172432000    1.122790000   17.212706000
    299      5      3    0.184800000    8.063118000   32.302438000   14.827120000
    300      5      4   -0.780000000    9.686432000    4.767984000   11.675776000
    301      5      1    0.437400000   17.037652000   18.291042000    9.447060000
    302      5      2    0.157800000   18.454130000   21.064736000    8.977612000
    303      5      3    0.184800000   17.755768000   16.707236000   13.530328000
    304      5      4   -0.780000000   15.795066000   22.734530000   12.005784000
    305      5      1    0.437400000   30.394842000   25.304874000   24.743628000
    306      5      2    0.157800000   27.669952000   25.193322000   26.318138000
    307      5      3    0.184800000   31.462720000   29.435784000   23.522366000
    308      5      4   -0.780000000    2.700488000   33.319188000   27.240766000
    309      5      1    0.437400000    0.219618000   25.622100000   35.644350000
    310      5      2    0.157800000   31.501066000   28.607278000   34.920424000
    311      5      3    0.184800000   29.209602000   22.762418000   34.023360000
    312      5      4   -0.780000000   28.009256000   32.845092000   33.609688000
    313      5      1    0.437400000    0.340466000   29.087184000   44.565024000
    314      5      2    0.157800000   30.220542000   28.395794000   42.317716000
    315      5      3    0.184800000    0.769244000   33.462114000   45.176236000
    316      5      4   -0.780000000    1.485036000   30.602432000   39.251198000
    317      5      1    0.437400000    2.800420000   33.464438000   34.446328000
    318      5      2    0.157800000    0.696038000   33.729374000   32.118842000
    319      5      3    0.184800000    1.896384000    2.089574000   37.847502000
    320      5      4   -0.780000000    1.109710000    4.152124000   32.201344000
    321      5      1    0.437400000   30.879396000   16.901290000   22.462622000
    322      5      2    0.157800000    0.484554000   19.392618000   23.566522000
    323      5      3    0.184800000    1.616342000   13.646528000   21.136780000
    324      5      4   -0.780000000   27.750130000   12.841560000   18.144630000
    325      5      1    0.437400000   11.231892000   22.648542000   24.333442000
    326      5      2    0.157800000    8.654576000   20.840470000   24.391542000
    327      5      3    0.184800000   10.521910000   26.521488000   22.283674000
    328      5      4   -0.780000000    1.051610000   29.855266000   17.614758000
    329      5      1    0.437400000    4.750256000   13.766512000   32.133948000
    330      5      2    0.157800000    3.118808000   11.075320000   32.226908000
    331      5      3    0.184800000    2.432066000   17.075888000   30.294502000
    332      5      4   -0.780000000    9.154236000   18.806970000   29.383494000
    333      5      1    0.437400000    5.800704000   16.867592000   39.044362000
    334      5      2    0.157800000    4.888534000   14.054390000   37.966026000
    335      5      3    0.184800000    2.571506000   18.941762000   41.274240000
    336      5      4   -0.780000000    3.492972000   20.680114000   35.590898000
    337      5      1    0.437400000    0.623994000   24.246292000   17.414894000
    338      5      2    0.157800000    2.093924000   22.668296000   19.708682000
    339      5      3    0.184800000    2.713270000   23.882586000   13.516384000
    340      5      4   -0.780000000    5.886692000   28.119238000   43.714440000
    341      5      1    0.437400000    5.462562000   31.809750000   22.662486000
    342      5      2    0.157800000    8.118894000   31.791158000   20.971776000
    343      5      3    0.184800000    3.047926000    1.386564000   21.960638000
    344      5      4   -0.780000000    9.559774000    2.066334000   20.559266000
    345      5      1    0.437400000    3.749774000   27.925184000   28.694428000
    346      5      2    0.157800000    5.790246000   29.406734000   26.808502000
    347      5      3    0.184800000    4.249434000   23.516556000   28.578228000
    348      5      4   -0.780000000    4.838568000   25.616290000   23.062214000
    349      5      1    0.437400000    5.104666000   26.470360000   38.377374000