ITEM: TIMESTEP
0
ITEM: NUMBER OF ATOMS
3822
ITEM: BOX BOUNDS pp pp pp
0 31.974
0 34.08
-150 273.2
ITEM: ATOMS id type x y z q 
1285 5 0 0.71 0 -8.66517e-05 
1286 5 1.22976 0 0 0.518728 
1287 5 2.45951 0.71 0 1.8867 
1288 5 3.68927 0 0 1.90216 
1289 5 4.91902 0.71 0 1.45145 
1290 5 6.14878 0 0 -0.0131764 
1291 5 7.37854 0.71 0 -1.85157 
1292 5 8.60829 0 0 0.0975792 
1293 5 9.83805 0.71 0 0.775736 
1312 5 0 2.13 0 -2.971e-05 
1313 5 1.22976 2.84 0 -0.61893 
1314 5 2.45951 2.13 0 -0.367419 
1315 5 3.68927 2.84 0 -0.791389 
1316 5 4.91902 2.13 0 -0.717654 
1317 5 6.14878 2.84 0 -1.44082 
1318 5 7.37854 2.13 0 -1.79512 
1319 5 8.60829 2.84 0 1.19976 
1320 5 9.83805 2.13 0 1.47453 
1339 5 0 4.97 0 -0.000226171 
1340 5 1.22976 4.26 0 0.796688 
1341 5 2.45951 4.97 0 1.68404 
1342 5 3.68927 4.26 0 1.85009 
1343 5 4.91902 4.97 0 1.96043 
1344 5 6.14878 4.26 0 -0.106055 
1345 5 7.37854 4.97 0 -1.35584 
1346 5 8.60829 4.26 0 0.952554 
1347 5 9.83805 4.97 0 0.937116 
1366 5 0 6.39 0 5.59059e-06 
1367 5 1.22976 7.1 0 -0.400322 
1368 5 2.45951 6.39 0 -1.33024 
1369 5 3.68927 7.1 0 -2.84045 
1370 5 4.91902 6.39 0 0.444056 
1371 5 6.14878 7.1 0 1.83071 
1372 5 7.37854 6.39 0 -2.04362 
1373 5 8.60829 7.1 0 -1.97999 
1374 5 9.83805 6.39 0 0.859763 
1393 5 0 9.23 0 -0.000294643 
1394 5 1.22976 8.52 0 1.14424 
1395 5 2.45951 9.23 0 1.52561 
1396 5 3.68927 8.52 0 -1.03804 
1397 5 4.91902 9.23 0 0.463948 
1398 5 6.14878 8.52 0 2.46188 
1399 5 7.37854 9.23 0 0.943931 
1400 5 8.60829 8.52 0 -0.355454 
1401 5 9.83805 9.23 0 0.179522 
1420 5 0 10.65 0 0.000252256 
1421 5 1.22976 11.36 0 -0.925918 
1422 5 2.45951 10.65 0 1.26871 
1423 5 3.68927 11.36 0 0.0731681 
1424 5 4.91902 10.65 0 -0.499144 
1425 5 6.14878 11.36 0 -0.587012 
1426 5 7.37854 10.65 0 -0.211805 
1427 5 8.60829 11.36 0 -0.21127 
1428 5 9.83805 10.65 0 -1.05967 
1294 5 11.0678 0 0 0.469407 
1295 5 12.2976 0.71 0 -0.701246 
1296 5 13.5273 0 0 0.437153 
1297 5 14.7571 0.71 0 -1.29997 
1298 5 15.9868 0 0 0.721739 
1299 5 17.2166 0.71 0 1.91929 
1300 5 18.4463 0 0 -0.223777 
1301 5 19.6761 0.71 0 -0.550668 
1302 5 20.9059 0 0 0.0246696 
1321 5 11.0678 2.84 0 -0.681428 
1322 5 12.2976 2.13 0 -1.6596 
1323 5 13.5273 2.84 0 -0.273412 
1324 5 14.7571 2.13 0 -1.6113 
1325 5 15.9868 2.84 0 0.415936 
1326 5 17.2166 2.13 0 0.996149 
1327 5 18.4463 2.84 0 -1.55878 
1328 5 19.6761 2.13 0 -0.510483 
1329 5 20.9059 2.84 0 0.744339 
1348 5 11.0678 4.26 0 -0.851944 
1349 5 12.2976 4.97 0 -1.10497 
1350 5 13.5273 4.26 0 0.151546 
1351 5 14.7571 4.97 0 0.425216 
1352 5 15.9868 4.26 0 0.922733 
1353 5 17.2166 4.97 0 0.185736 
1354 5 18.4463 4.26 0 -1.81281 
1355 5 19.6761 4.97 0 0.0374362 
1356 5 20.9059 4.26 0 0.257595 
1375 5 11.0678 7.1 0 2.34702 
1376 5 12.2976 6.39 0 0.197117 
1377 5 13.5273 7.1 0 -0.13426 
1378 5 14.7571 6.39 0 -0.483448 
1379 5 15.9868 7.1 0 0.187761 
1380 5 17.2166 6.39 0 1.01082 
1381 5 18.4463 7.1 0 0.79707 
1382 5 19.6761 6.39 0 0.877066 
1383 5 20.9059 7.1 0 0.153367 
1402 5 11.0678 8.52 0 1.38159 
1403 5 12.2976 9.23 0 -0.643717 
1404 5 13.5273 8.52 0 -0.521069 
1405 5 14.7571 9.23 0 -0.780628 
1406 5 15.9868 8.52 0 -0.411066 
1407 5 17.2166 9.23 0 0.435381 
1408 5 18.4463 8.52 0 0.281604 
1409 5 19.6761 9.23 0 0.176796 
1410 5 20.9059 8.52 0 -1.07573 
1429 5 11.0678 11.36 0 -1.12977 
1430 5 12.2976 10.65 0 -0.957026 
1431 5 13.5273 11.36 0 0.744642 
1432 5 14.7571 10.65 0 0.00228245 
1433 5 15.9868 11.36 0 -0.208433 
1434 5 17.2166 10.65 0 0.307636 
1435 5 18.4463 11.36 0 -0.165983 
1436 5 19.6761 10.65 0 0.447889 
1437 5 20.9059 11.36 0 0.132995 
1303 5 22.1356 0.71 0 -1.03516 
1304 5 23.3654 0 0 -0.451782 
1305 5 24.5951 0.71 0 0.843366 
1306 5 25.8249 0 0 0.507695 
1307 5 27.0546 0.71 0 0.171357 
1308 5 28.2844 0 0 -0.139963 
1309 5 29.5141 0.71 0 -0.315844 
1310 5 30.7439 0 0 1.15343 
1311 5 31.9737 0.71 0 -8.66365e-05 
1330 5 22.1356 2.13 0 0.24094 
1331 5 23.3654 2.84 0 1.29068 
1332 5 24.5951 2.13 0 1.05305 
1333 5 25.8249 2.84 0 -0.590178 
1334 5 27.0546 2.13 0 -0.262462 
1335 5 28.2844 2.84 0 0.0983927 
1336 5 29.5141 2.13 0 -0.579213 
1337 5 30.7439 2.84 0 1.15423 
1338 5 31.9737 2.13 0 -2.96617e-05 
1357 5 22.1356 4.97 0 -0.259308 
1358 5 23.3654 4.26 0 0.446507 
1359 5 24.5951 4.97 0 -0.559933 
1360 5 25.8249 4.26 0 -0.821214 
1361 5 27.0546 4.97 0 0.439441 
1362 5 28.2844 4.26 0 0.364975 
1363 5 29.5141 4.97 0 -1.63379 
1364 5 30.7439 4.26 0 0.931898 
1365 5 31.9737 4.97 0 -0.000220821 
1384 5 22.1356 6.39 0 -0.0301732 
1385 5 23.3654 7.1 0 0.789374 
1386 5 24.5951 6.39 0 0.0702656 
1387 5 25.8249 7.1 0 0.254118 
1388 5 27.0546 6.39 0 0.422776 
1389 5 28.2844 7.1 0 -0.255055 
1390 5 29.5141 6.39 0 -2.76639 
1391 5 30.7439 7.1 0 -0.657362 
1392 5 31.9737 6.39 0 3.32893e-05 
1411 5 22.1356 9.23 0 -1.07247 
1412 5 23.3654 8.52 0 0.173038 
1413 5 24.5951 9.23 0 0.260115 
1414 5 25.8249 8.52 0 0.272081 
1415 5 27.0546 9.23 0 0.061704 
1416 5 28.2844 8.52 0 1.12032 
1417 5 29.5141 9.23 0 0.828621 
1418 5 30.7439 8.52 0 0.394133 
1419 5 31.9737 9.23 0 -0.000206936 
1438 5 22.1356 10.65 0 -0.375728 
1439 5 23.3654 11.36 0 0.59678 
1440 5 24.5951 10.65 0 -0.293372 
1441 5 25.8249 11.36 0 -1.59262 
1442 5 27.0546 10.65 0 -0.115473 
1443 5 28.2844 11.36 0 2.67098 
1444 5 29.5141 10.65 0 0.748366 
1445 5 30.7439 11.36 0 -1.30928 
1446 5 31.9737 10.65 0 0.00033868 
1447 5 0 13.49 0 0.000337706 
1448 5 1.22976 12.78 0 -1.01082 
1449 5 2.45951 13.49 0 0.627965 
1450 5 3.68927 12.78 0 -0.00427374 
1451 5 4.91902 13.49 0 -1.08297 
1452 5 6.14878 12.78 0 -0.492867 
1453 5 7.37854 13.49 0 1.04994 
1454 5 8.60829 12.78 0 0.692488 
1455 5 9.83805 13.49 0 -0.397732 
1474 5 0 14.91 0 4.38924e-05 
1475 5 1.22976 15.62 0 -0.544293 
1476 5 2.45951 14.91 0 0.305747 
1477 5 3.68927 15.62 0 -0.948752 
1478 5 4.91902 14.91 0 -0.0197396 
1479 5 6.14878 15.62 0 2.21122 
1480 5 7.37854 14.91 0 1.65558 
1481 5 8.60829 15.62 0 -0.731594 
1482 5 9.83805 14.91 0 -1.6171 
1501 5 0 17.75 0 -2.67544e-05 
1502 5 1.22976 17.04 0 -0.0228414 
1503 5 2.45951 17.75 0 0.726334 
1504 5 3.68927 17.04 0 -0.638548 
1505 5 4.91902 17.75 0 -0.516178 
1506 5 6.14878 17.04 0 0.747248 
1507 5 7.37854 17.75 0 -0.239898 
1508 5 8.60829 17.04 0 -0.193193 
1509 5 9.83805 17.75 0 0.729954 
1528 5 0 19.17 0 -0.000119333 
1529 5 1.22976 19.88 0 0.265047 
1530 5 2.45951 19.17 0 0.879021 
1531 5 3.68927 19.88 0 0.0210475 
1532 5 4.91902 19.17 0 0.406499 
1533 5 6.14878 19.88 0 1.73036 
1534 5 7.37854 19.17 0 -0.772599 
1535 5 8.60829 19.88 0 -1.24766 
1536 5 9.83805 19.17 0 0.187873 
1555 5 0 22.01 0 -3.22426e-05 
1556 5 1.22976 21.3 0 -0.595273 
1557 5 2.45951 22.01 0 -0.581713 
1558 5 3.68927 21.3 0 -1.01827 
1559 5 4.91902 22.01 0 -0.277573 
1560 5 6.14878 21.3 0 1.35841 
1561 5 7.37854 22.01 0 -1.01344 
1562 5 8.60829 21.3 0 -0.51072 
1563 5 9.83805 22.01 0 2.28768 
1456 5 11.0678 12.78 0 -0.274867 
1457 5 12.2976 13.49 0 -0.259418 
1458 5 13.5273 12.78 0 0.534358 
1459 5 14.7571 13.49 0 0.139735 
1460 5 15.9868 12.78 0 -0.623861 
1461 5 17.2166 13.49 0 -0.670515 
1462 5 18.4463 12.78 0 0.394409 
1463 5 19.6761 13.49 0 1.78409 
1464 5 20.9059 12.78 0 0.760271 
1483 5 11.0678 15.62 0 -0.677969 
1484 5 12.2976 14.91 0 0.433467 
1485 5 13.5273 15.62 0 2.72949 
1486 5 14.7571 14.91 0 1.18055 
1487 5 15.9868 15.62 0 0.11653 
1488 5 17.2166 14.91 0 -1.07159 
1489 5 18.4463 15.62 0 -2.52137 
1490 5 19.6761 14.91 0 0.255174 
1491 5 20.9059 15.62 0 0.724578 
1510 5 11.0678 17.04 0 -0.379659 
1511 5 12.2976 17.75 0 -0.76171 
1512 5 13.5273 17.04 0 1.1554 
1513 5 14.7571 17.75 0 0.151197 
1514 5 15.9868 17.04 0 -0.192554 
1515 5 17.2166 17.75 0 0.0757366 
1516 5 18.4463 17.04 0 -0.558443 
1517 5 19.6761 17.75 0 1.28257 
1518 5 20.9059 17.04 0 1.68188 
1537 5 11.0678 19.88 0 0.0376347 
1538 5 12.2976 19.17 0 -2.33913 
1539 5 13.5273 19.88 0 -0.87722 
1540 5 14.7571 19.17 0 0.700488 
1541 5 15.9868 19.88 0 1.06287 
1542 5 17.2166 19.17 0 -0.168356 
1543 5 18.4463 19.88 0 -2.48821 
1544 5 19.6761 19.17 0 -0.193642 
1545 5 20.9059 19.88 0 0.292047 
1564 5 11.0678 21.3 0 1.92938 
1565 5 12.2976 22.01 0 -0.37382 
1566 5 13.5273 21.3 0 -0.775585 
1567 5 14.7571 22.01 0 -0.641491 
1568 5 15.9868 21.3 0 0.876812 
1569 5 17.2166 22.01 0 0.910241 
1570 5 18.4463 21.3 0 -1.90778 
1571 5 19.6761 22.01 0 0.86431 
1572 5 20.9059 21.3 0 1.48863 
1465 5 22.1356 13.49 0 -0.596122 
1466 5 23.3654 12.78 0 0.723168 
1467 5 24.5951 13.49 0 0.847439 
1468 5 25.8249 12.78 0 -1.77611 
1469 5 27.0546 13.49 0 -2.2199 
1470 5 28.2844 12.78 0 1.58233 
1471 5 29.5141 13.49 0 0.574148 
1472 5 30.7439 12.78 0 -0.974695 
1473 5 31.9737 13.49 0 0.00034838 
1492 5 22.1356 14.91 0 -0.951117 
1493 5 23.3654 15.62 0 0.079096 
1494 5 24.5951 14.91 0 1.92554 
1495 5 25.8249 15.62 0 0.809484 
1496 5 27.0546 14.91 0 -2.19229 
1497 5 28.2844 15.62 0 -0.82422 
1498 5 29.5141 14.91 0 0.200856 
1499 5 30.7439 15.62 0 0.477996 
1500 5 31.9737 14.91 0 2.59864e-05 
1519 5 22.1356 17.75 0 -0.301095 
1520 5 23.3654 17.04 0 -0.668765 
1521 5 24.5951 17.75 0 -0.130353 
1522 5 25.8249 17.04 0 1.13536 
1523 5 27.0546 17.75 0 0.809224 
1524 5 28.2844 17.04 0 0.546125 
1525 5 29.5141 17.75 0 -0.303916 
1526 5 30.7439 17.04 0 0.0239821 
1527 5 31.9737 17.75 0 -8.65407e-05 
1546 5 22.1356 19.17 0 -0.727155 
1547 5 23.3654 19.88 0 0.243995 
1548 5 24.5951 19.17 0 -0.419829 
1549 5 25.8249 19.88 0 -1.42391 
1550 5 27.0546 19.17 0 -0.513076 
1551 5 28.2844 19.88 0 0.29653 
1552 5 29.5141 19.17 0 0.728593 
1553 5 30.7439 19.88 0 1.55841 
1554 5 31.9737 19.17 0 -0.000257018 
1573 5 22.1356 22.01 0 1.1321 
1574 5 23.3654 21.3 0 1.00913 
1575 5 24.5951 22.01 0 0.00771201 
1576 5 25.8249 21.3 0 -1.48018 
1577 5 27.0546 22.01 0 -0.248128 
1578 5 28.2844 21.3 0 -0.110787 
1579 5 29.5141 22.01 0 -0.883058 
1580 5 30.7439 21.3 0 0.705675 
1581 5 31.9737 22.01 0 -6.16426e-06 
1582 5 0 23.43 0 0.000171035 
1583 5 1.22976 24.14 0 0.38164 
1584 5 2.45951 23.43 0 0.411278 
1585 5 3.68927 24.14 0 -0.759129 
1586 5 4.91902 23.43 0 -0.648106 
1587 5 6.14878 24.14 0 0.112174 
1588 5 7.37854 23.43 0 -1.20884 
1589 5 8.60829 24.14 0 -0.20812 
1590 5 9.83805 23.43 0 0.86405 
1609 5 0 26.27 0 0.000306576 
1610 5 1.22976 25.56 0 0.271218 
1611 5 2.45951 26.27 0 0.574751 
1612 5 3.68927 25.56 0 -0.896809 
1613 5 4.91902 26.27 0 0.383949 
1614 5 6.14878 25.56 0 1.33437 
1615 5 7.37854 26.27 0 0.991155 
1616 5 8.60829 25.56 0 0.384436 
1617 5 9.83805 26.27 0 -0.697927 
1636 5 0 27.69 0 0.000195334 
1637 5 1.22976 28.4 0 -0.00547914 
1638 5 2.45951 27.69 0 0.810092 
1639 5 3.68927 28.4 0 0.73537 
1640 5 4.91902 27.69 0 0.460839 
1641 5 6.14878 28.4 0 -0.310985 
1642 5 7.37854 27.69 0 -0.368093 
1643 5 8.60829 28.4 0 -0.835015 
1644 5 9.83805 27.69 0 -1.23057 
1663 5 0 30.53 0 -0.000112213 
1664 5 1.22976 29.82 0 0.206783 
1665 5 2.45951 30.53 0 -0.148425 
1666 5 3.68927 29.82 0 0.768867 
1667 5 4.91902 30.53 0 0.087547 
1668 5 6.14878 29.82 0 -0.416844 
1669 5 7.37854 30.53 0 -0.293375 
1670 5 8.60829 29.82 0 -0.409883 
1671 5 9.83805 30.53 0 0.0817028 
1690 5 0 31.95 0 -7.5048e-05 
1691 5 1.22976 32.66 0 -1.21802 
1692 5 2.45951 31.95 0 -1.28156 
1693 5 3.68927 32.66 0 -0.97723 
1694 5 4.91902 31.95 0 -1.48783 
1695 5 6.14878 32.66 0 -0.2913 
1696 5 7.37854 31.95 0 1.05299 
1697 5 8.60829 32.66 0 1.9232 
1698 5 9.83805 31.95 0 1.53233 
1591 5 11.0678 24.14 0 -0.290231 
1592 5 12.2976 23.43 0 -0.845976 
1593 5 13.5273 24.14 0 0.75915 
1594 5 14.7571 23.43 0 -0.187885 
1595 5 15.9868 24.14 0 0.407525 
1596 5 17.2166 23.43 0 0.817049 
1597 5 18.4463 24.14 0 -0.630417 
1598 5 19.6761 23.43 0 0.348693 
1599 5 20.9059 24.14 0 -0.355495 
1618 5 11.0678 25.56 0 -0.196703 
1619 5 12.2976 26.27 0 0.216126 
1620 5 13.5273 25.56 0 1.43975 
1621 5 14.7571 26.27 0 -0.0226347 
1622 5 15.9868 25.56 0 0.0031551 
1623 5 17.2166 26.27 0 0.266939 
1624 5 18.4463 25.56 0 -0.304947 
1625 5 19.6761 26.27 0 0.916935 
1626 5 20.9059 25.56 0 0.472276 
1645 5 11.0678 28.4 0 -0.652139 
1646 5 12.2976 27.69 0 0.352648 
1647 5 13.5273 28.4 0 1.51347 
1648 5 14.7571 27.69 0 -0.403895 
1649 5 15.9868 28.4 0 -1.16125 
1650 5 17.2166 27.69 0 -0.20551 
1651 5 18.4463 28.4 0 0.659677 
1652 5 19.6761 27.69 0 0.451831 
1653 5 20.9059 28.4 0 -1.32204 
1672 5 11.0678 29.82 0 -0.811613 
1673 5 12.2976 30.53 0 -1.34254 
1674 5 13.5273 29.82 0 0.610165 
1675 5 14.7571 30.53 0 -0.173268 
1676 5 15.9868 29.82 0 -0.374244 
1677 5 17.2166 30.53 0 0.548381 
1678 5 18.4463 29.82 0 0.514659 
1679 5 19.6761 30.53 0 0.620378 
1680 5 20.9059 29.82 0 -1.47901 
1699 5 11.0678 32.66 0 0.741594 
1700 5 12.2976 31.95 0 -0.866092 
1701 5 13.5273 32.66 0 0.260346 
1702 5 14.7571 31.95 0 -0.221062 
1703 5 15.9868 32.66 0 0.40137 
1704 5 17.2166 31.95 0 0.473771 
1705 5 18.4463 32.66 0 -0.436575 
1706 5 19.6761 31.95 0 1.31489 
1707 5 20.9059 32.66 0 1.79288 
1600 5 22.1356 23.43 0 -0.623572 
1601 5 23.3654 24.14 0 -0.000653644 
1602 5 24.5951 23.43 0 0.792974 
1603 5 25.8249 24.14 0 0.187957 
1604 5 27.0546 23.43 0 1.40906 
1605 5 28.2844 24.14 0 1.87972 
1606 5 29.5141 23.43 0 -0.695971 
1607 5 30.7439 24.14 0 -1.47804 
1608 5 31.9737 23.43 0 0.000181992 
1627 5 22.1356 26.27 0 -0.0612716 
1628 5 23.3654 25.56 0 0.064615 
1629 5 24.5951 26.27 0 -0.718498 
1630 5 25.8249 25.56 0 -2.61626 
1631 5 27.0546 26.27 0 -2.12849 
1632 5 28.2844 25.56 0 0.986721 
1633 5 29.5141 26.27 0 0.184169 
1634 5 30.7439 25.56 0 -1.24931 
1635 5 31.9737 26.27 0 0.0003 
1654 5 22.1356 27.69 0 -0.595602 
1655 5 23.3654 28.4 0 1.29632 
1656 5 24.5951 27.69 0 1.53747 
1657 5 25.8249 28.4 0 0.791989 
1658 5 27.0546 27.69 0 -0.952774 
1659 5 28.2844 28.4 0 0.747349 
1660 5 29.5141 27.69 0 0.838827 
1661 5 30.7439 28.4 0 0.83095 
1662 5 31.9737 27.69 0 9.52901e-05 
1681 5 22.1356 30.53 0 -1.30075 
1682 5 23.3654 29.82 0 0.12703 
1683 5 24.5951 30.53 0 0.220039 
1684 5 25.8249 29.82 0 1.456 
1685 5 27.0546 30.53 0 0.723572 
1686 5 28.2844 29.82 0 0.285447 
1687 5 29.5141 30.53 0 -1.59854 
1688 5 30.7439 29.82 0 0.024221 
1689 5 31.9737 30.53 0 -0.000117349 
1708 5 22.1356 31.95 0 0.0216083 
1709 5 23.3654 32.66 0 -0.862735 
1710 5 24.5951 31.95 0 -0.936105 
1711 5 25.8249 32.66 0 -0.443722 
1712 5 27.0546 31.95 0 -0.443998 
1713 5 28.2844 32.66 0 -0.767099 
1714 5 29.5141 31.95 0 -1.12902 
1715 5 30.7439 32.66 0 1.60332 
1716 5 31.9737 31.95 0 -7.49256e-05 
14 2 5.89352 5.05928 10.8642 0.1578 
1717 5 0 0.71 6.8 0.000214381 
1718 5 1.22976 0 6.8 0.472468 
1719 5 2.45951 0.71 6.8 1.31405 
1720 5 3.68927 0 6.8 -0.375897 
1721 5 4.91902 0.71 6.8 -0.52597 
1722 5 6.14878 0 6.8 0.592563 
1723 5 7.37854 0.71 6.8 0.652982 
1724 5 8.60829 0 6.8 1.69152 
1725 5 9.83805 0.71 6.8 0.442895 
1744 5 0 2.13 6.8 0.00013254 
1745 5 1.22976 2.84 6.8 1.01339 
1746 5 2.45951 2.13 6.8 2.16596 
1747 5 3.68927 2.84 6.8 -0.0154102 
1748 5 4.91902 2.13 6.8 -0.81364 
1749 5 6.14878 2.84 6.8 -0.477201 
1750 5 7.37854 2.13 6.8 -0.744403 
1751 5 8.60829 2.84 6.8 -1.01004 
1752 5 9.83805 2.13 6.8 -0.821379 
1771 5 0 4.97 6.8 3.11124e-05 
1772 5 1.22976 4.26 6.8 0.90587 
1773 5 2.45951 4.97 6.8 -0.0563882 
1774 5 3.68927 4.26 6.8 -1.19775 
1775 5 4.91902 4.97 6.8 -0.118089 
1776 5 6.14878 4.26 6.8 0.859323 
1777 5 7.37854 4.97 6.8 0.718062 
1778 5 8.60829 4.26 6.8 -0.0600288 
1779 5 9.83805 4.97 6.8 0.0145831 
1798 5 0 6.39 6.8 -6.32475e-05 
1799 5 1.22976 7.1 6.8 -0.158445 
1800 5 2.45951 6.39 6.8 0.406591 
1801 5 3.68927 7.1 6.8 0.286749 
1802 5 4.91902 6.39 6.8 -0.37416 
1803 5 6.14878 7.1 6.8 -0.580533 
1804 5 7.37854 6.39 6.8 -0.223066 
1805 5 8.60829 7.1 6.8 0.453757 
1806 5 9.83805 6.39 6.8 -0.288941 
1825 5 0 9.23 6.8 0.000179101 
1826 5 1.22976 8.52 6.8 -0.346368 
1827 5 2.45951 9.23 6.8 0.436458 
1828 5 3.68927 8.52 6.8 0.802825 
1829 5 4.91902 9.23 6.8 1.59184 
1830 5 6.14878 8.52 6.8 -0.0434532 
1831 5 7.37854 9.23 6.8 -1.17854 
1832 5 8.60829 8.52 6.8 1.26927 
1833 5 9.83805 9.23 6.8 2.35844 
1852 5 0 10.65 6.8 -3.97584e-05 
1853 5 1.22976 11.36 6.8 -2.00197 
1854 5 2.45951 10.65 6.8 0.0276125 
1855 5 3.68927 11.36 6.8 0.0836426 
1856 5 4.91902 10.65 6.8 1.16363 
1857 5 6.14878 11.36 6.8 0.55906 
1858 5 7.37854 10.65 6.8 -2.01711 
1859 5 8.60829 11.36 6.8 -1.03779 
1860 5 9.83805 10.65 6.8 0.891141 
2149 5 0 1.42 3.4 -0.000321542 
2150 5 1.22976 0.71 3.4 0.708376 
2151 5 2.45951 1.42 3.4 1.52789 
2152 5 3.68927 0.71 3.4 -0.264279 
2153 5 4.91902 1.42 3.4 -1.02095 
2154 5 6.14878 0.71 3.4 0.983241 
2155 5 7.37854 1.42 3.4 0.645428 
2156 5 8.60829 0.71 3.4 0.699466 
2157 5 9.83805 1.42 3.4 0.324193 
2176 5 0 2.84 3.4 -0.000264845 
2177 5 1.22976 3.55 3.4 0.402447 
2178 5 2.45951 2.84 3.4 0.853159 
2179 5 3.68927 3.55 3.4 -1.22641 
2180 5 4.91902 2.84 3.4 -1.59824 
2181 5 6.14878 3.55 3.4 0.141588 
2182 5 7.37854 2.84 3.4 -0.776302 
2183 5 8.60829 3.55 3.4 -1.84953 
2184 5 9.83805 2.84 3.4 -1.23896 
2203 5 0 5.68 3.4 -9.11155e-05 
2204 5 1.22976 4.97 3.4 0.037872 
2205 5 2.45951 5.68 3.4 0.459246 
2206 5 3.68927 4.97 3.4 -0.147935 
2207 5 4.91902 5.68 3.4 1.21077 
2208 5 6.14878 4.97 3.4 2.09922 
2209 5 7.37854 5.68 3.4 0.492607 
2210 5 8.60829 4.97 3.4 -0.598664 
2211 5 9.83805 5.68 3.4 0.152199 
2230 5 0 7.1 3.4 -8.29753e-05 
2231 5 1.22976 7.81 3.4 -0.343953 
2232 5 2.45951 7.1 3.4 -1.13113 
2233 5 3.68927 7.81 3.4 -1.97024 
2234 5 4.91902 7.1 3.4 -0.490972 
2235 5 6.14878 7.81 3.4 0.657583 
2236 5 7.37854 7.1 3.4 -0.112321 
2237 5 8.60829 7.81 3.4 0.0888224 
2238 5 9.83805 7.1 3.4 0.215015 
2257 5 0 9.94 3.4 -0.000303953 
2258 5 1.22976 9.23 3.4 1.15486 
2259 5 2.45951 9.94 3.4 1.9025 
2260 5 3.68927 9.23 3.4 -0.992428 
2261 5 4.91902 9.94 3.4 -0.653066 
2262 5 6.14878 9.23 3.4 0.779528 
2263 5 7.37854 9.94 3.4 0.209948 
2264 5 8.60829 9.23 3.4 1.09315 
2265 5 9.83805 9.94 3.4 1.08277 
2284 5 0 11.36 3.4 -4.57216e-06 
2286 5 2.45951 11.36 3.4 1.29171 
2288 5 4.91902 11.36 3.4 -0.712886 
2290 5 7.37854 11.36 3.4 -0.774773 
2292 5 9.83805 11.36 3.4 -0.958884 
13 1 5.34234 7.66783 10.3787 0.4374 
15 3 1.652 8.4925 10.9206 0.1848 
12 4 9.71543 6.48114 11.6241 -0.78 
1048 4 2.70656 1.85083 10.8738 -0.78 
11 3 9.29208 1.48694 12.006 0.1848 
1726 5 11.0678 0 6.8 0.641108 
1727 5 12.2976 0.71 6.8 -1.75768 
1728 5 13.5273 0 6.8 -0.650108 
1729 5 14.7571 0.71 6.8 0.390428 
1730 5 15.9868 0 6.8 0.626044 
1731 5 17.2166 0.71 6.8 0.528517 
1732 5 18.4463 0 6.8 -0.978109 
1733 5 19.6761 0.71 6.8 -0.509347 
1734 5 20.9059 0 6.8 0.388953 
1753 5 11.0678 2.84 6.8 -0.646309 
1754 5 12.2976 2.13 6.8 -2.20506 
1755 5 13.5273 2.84 6.8 0.0257515 
1756 5 14.7571 2.13 6.8 -0.0307177 
1757 5 15.9868 2.84 6.8 -1.0506 
1758 5 17.2166 2.13 6.8 0.459447 
1759 5 18.4463 2.84 6.8 1.89345 
1760 5 19.6761 2.13 6.8 0.346805 
1761 5 20.9059 2.84 6.8 -1.60183 
1780 5 11.0678 4.26 6.8 0.773948 
1781 5 12.2976 4.97 6.8 0.566703 
1782 5 13.5273 4.26 6.8 1.18499 
1783 5 14.7571 4.97 6.8 0.401241 
1784 5 15.9868 4.26 6.8 -1.15446 
1785 5 17.2166 4.97 6.8 -0.531636 
1786 5 18.4463 4.26 6.8 0.908438 
1787 5 19.6761 4.97 6.8 0.686087 
1788 5 20.9059 4.26 6.8 -1.72373 
1807 5 11.0678 7.1 6.8 -0.690899 
1808 5 12.2976 6.39 6.8 -0.819389 
1809 5 13.5273 7.1 6.8 0.856033 
1810 5 14.7571 6.39 6.8 0.8861 
1811 5 15.9868 7.1 6.8 0.508959 
1812 5 17.2166 6.39 6.8 -0.350954 
1813 5 18.4463 7.1 6.8 -0.818088 
1814 5 19.6761 6.39 6.8 1.66314 
1815 5 20.9059 7.1 6.8 1.32765 
1834 5 11.0678 8.52 6.8 0.620485 
1835 5 12.2976 9.23 6.8 -1.19259 
1836 5 13.5273 8.52 6.8 0.40885 
1837 5 14.7571 9.23 6.8 -0.602885 
1838 5 15.9868 8.52 6.8 0.0182564 
1839 5 17.2166 9.23 6.8 0.0515328 
1840 5 18.4463 8.52 6.8 -1.30202 
1841 5 19.6761 9.23 6.8 0.398071 
1842 5 20.9059 8.52 6.8 0.579394 
1861 5 11.0678 11.36 6.8 -0.840062 
1862 5 12.2976 10.65 6.8 -2.17554 
1863 5 13.5273 11.36 6.8 -0.313854 
1864 5 14.7571 10.65 6.8 -0.296807 
1865 5 15.9868 11.36 6.8 0.568889 
1866 5 17.2166 10.65 6.8 0.570291 
1867 5 18.4463 11.36 6.8 -0.77674 
1868 5 19.6761 10.65 6.8 1.33323 
1869 5 20.9059 11.36 6.8 1.15876 
2158 5 11.0678 0.71 3.4 0.410088 
2159 5 12.2976 1.42 3.4 0.974878 
2160 5 13.5273 0.71 3.4 2.95573 
2161 5 14.7571 1.42 3.4 -0.85163 
2162 5 15.9868 0.71 3.4 -1.10939 
2163 5 17.2166 1.42 3.4 -0.365698 
2164 5 18.4463 0.71 3.4 -1.27533 
2165 5 19.6761 1.42 3.4 0.444652 
2166 5 20.9059 0.71 3.4 -0.995616 
2185 5 11.0678 3.55 3.4 -0.676751 
2186 5 12.2976 2.84 3.4 -0.65043 
2187 5 13.5273 3.55 3.4 0.895982 
2188 5 14.7571 2.84 3.4 -1.55377 
2189 5 15.9868 3.55 3.4 -1.01807 
2190 5 17.2166 2.84 3.4 -0.081872 
2191 5 18.4463 3.55 3.4 1.75894 
2192 5 19.6761 2.84 3.4 2.75849 
2193 5 20.9059 3.55 3.4 -0.011145 
2212 5 11.0678 4.97 3.4 0.0942236 
2213 5 12.2976 5.68 3.4 -0.376079 
2214 5 13.5273 4.97 3.4 1.52623 
2215 5 14.7571 5.68 3.4 0.413814 
2216 5 15.9868 4.97 3.4 -0.0178778 
2217 5 17.2166 5.68 3.4 0.0281522 
2218 5 18.4463 4.97 3.4 -0.61428 
2219 5 19.6761 5.68 3.4 -0.405905 
2220 5 20.9059 4.97 3.4 -1.07629 
2239 5 11.0678 7.81 3.4 -0.27899 
2240 5 12.2976 7.1 3.4 -1.45065 
2241 5 13.5273 7.81 3.4 0.542789 
2242 5 14.7571 7.1 3.4 0.301419 
2243 5 15.9868 7.81 3.4 0.685252 
2244 5 17.2166 7.1 3.4 0.57873 
2245 5 18.4463 7.81 3.4 -1.60099 
2246 5 19.6761 7.1 3.4 0.549103 
2247 5 20.9059 7.81 3.4 1.0585 
2266 5 11.0678 9.23 3.4 0.425756 
2267 5 12.2976 9.94 3.4 -1.18874 
2268 5 13.5273 9.23 3.4 1.12958 
2269 5 14.7571 9.94 3.4 -0.088509 
2270 5 15.9868 9.23 3.4 0.100552 
2271 5 17.2166 9.94 3.4 -0.0772792 
2272 5 18.4463 9.23 3.4 -2.14398 
2273 5 19.6761 9.94 3.4 0.363325 
2274 5 20.9059 9.23 3.4 -0.120767 
2294 5 12.2976 11.36 3.4 -1.29931 
2296 5 14.7571 11.36 3.4 0.227463 
2298 5 17.2166 11.36 3.4 0.22323 
2300 5 19.6761 11.36 3.4 1.26162 
654 2 12.5951 9.71043 10.4131 0.1578 
653 1 14.7538 8.31 11.2635 0.4374 
650 2 18.5055 5.79099 9.57739 0.1578 
649 1 18.9203 3.37138 10.7252 0.4374 
651 3 15.7167 1.3015 10.9366 0.1848 
4 4 19.3913 8.8429 11.9627 -0.78 
1735 5 22.1356 0.71 6.8 0.990314 
1736 5 23.3654 0 6.8 0.996483 
1737 5 24.5951 0.71 6.8 0.0207706 
1738 5 25.8249 0 6.8 -1.96695 
1739 5 27.0546 0.71 6.8 -1.78874 
1740 5 28.2844 0 6.8 0.748703 
1741 5 29.5141 0.71 6.8 0.779011 
1742 5 30.7439 0 6.8 -0.48807 
1743 5 31.9737 0.71 6.8 0.000214292 
1762 5 22.1356 2.13 6.8 -0.589754 
1763 5 23.3654 2.84 6.8 0.715475 
1764 5 24.5951 2.13 6.8 1.21573 
1765 5 25.8249 2.84 6.8 0.706443 
1766 5 27.0546 2.13 6.8 -0.277905 
1767 5 28.2844 2.84 6.8 1.28687 
1768 5 29.5141 2.13 6.8 0.992315 
1769 5 30.7439 2.84 6.8 -0.309732 
1770 5 31.9737 2.13 6.8 0.000132419 
1789 5 22.1356 4.97 6.8 -1.37313 
1790 5 23.3654 4.26 6.8 0.683733 
1791 5 24.5951 4.97 6.8 1.44505 
1792 5 25.8249 4.26 6.8 0.485197 
1793 5 27.0546 4.97 6.8 -1.14501 
1794 5 28.2844 4.26 6.8 -0.291279 
1795 5 29.5141 4.97 6.8 -1.78675 
1796 5 30.7439 4.26 6.8 -1.36941 
1797 5 31.9737 4.97 6.8 3.40356e-05 
1816 5 22.1356 6.39 6.8 -0.388689 
1817 5 23.3654 7.1 6.8 0.0835105 
1818 5 24.5951 6.39 6.8 0.697547 
1819 5 25.8249 7.1 6.8 -0.426058 
1820 5 27.0546 6.39 6.8 -0.499437 
1821 5 28.2844 7.1 6.8 0.96018 
1822 5 29.5141 6.39 6.8 -0.916535 
1823 5 30.7439 7.1 6.8 -0.169007 
1824 5 31.9737 6.39 6.8 -2.762e-07 
1843 5 22.1356 9.23 6.8 -1.0195 
1844 5 23.3654 8.52 6.8 -0.654042 
1845 5 24.5951 9.23 6.8 -0.251064 
1846 5 25.8249 8.52 6.8 -0.24702 
1847 5 27.0546 9.23 6.8 0.652267 
1848 5 28.2844 8.52 6.8 1.06133 
1849 5 29.5141 9.23 6.8 -0.394876 
1850 5 30.7439 8.52 6.8 -0.454236 
1851 5 31.9737 9.23 6.8 0.000181826 
1870 5 22.1356 10.65 6.8 -0.927445 
1871 5 23.3654 11.36 6.8 0.0553993 
1872 5 24.5951 10.65 6.8 0.299406 
1873 5 25.8249 11.36 6.8 -0.168939 
1874 5 27.0546 10.65 6.8 0.415727 
1875 5 28.2844 11.36 6.8 0.0197505 
1876 5 29.5141 10.65 6.8 0.0914638 
1877 5 30.7439 11.36 6.8 2.30685 
1878 5 31.9737 10.65 6.8 -8.86681e-06 
2167 5 22.1356 1.42 3.4 -1.65659 
2168 5 23.3654 0.71 3.4 0.34951 
2169 5 24.5951 1.42 3.4 0.95391 
2170 5 25.8249 0.71 3.4 0.862778 
2171 5 27.0546 1.42 3.4 0.101505 
2172 5 28.2844 0.71 3.4 0.806722 
2173 5 29.5141 1.42 3.4 -0.165918 
2174 5 30.7439 0.71 3.4 1.43304 
2175 5 31.9737 1.42 3.4 -0.000321546 
2194 5 22.1356 2.84 3.4 -1.21232 
2195 5 23.3654 3.55 3.4 0.773487 
2196 5 24.5951 2.84 3.4 0.346396 
2197 5 25.8249 3.55 3.4 -1.19347 
2198 5 27.0546 2.84 3.4 -1.49832 
2199 5 28.2844 3.55 3.4 0.0783705 
2200 5 29.5141 2.84 3.4 -0.185884 
2201 5 30.7439 3.55 3.4 0.568806 
2202 5 31.9737 2.84 3.4 -0.000278166 
2221 5 22.1356 5.68 3.4 -0.746623 
2222 5 23.3654 4.97 3.4 0.881791 
2223 5 24.5951 5.68 3.4 0.321399 
2224 5 25.8249 4.97 3.4 0.00791935 
2225 5 27.0546 5.68 3.4 0.641539 
2226 5 28.2844 4.97 3.4 0.945682 
2227 5 29.5141 5.68 3.4 -2.16702 
2228 5 30.7439 4.97 3.4 -0.0759186 
2229 5 31.9737 5.68 3.4 -4.91475e-05 
2248 5 22.1356 7.1 3.4 0.959986 
2249 5 23.3654 7.81 3.4 1.06905 
2250 5 24.5951 7.1 3.4 -0.513238 
2251 5 25.8249 7.81 3.4 -0.790928 
2252 5 27.0546 7.1 3.4 0.173948 
2253 5 28.2844 7.81 3.4 0.849418 
2254 5 29.5141 7.1 3.4 -1.82848 
2255 5 30.7439 7.81 3.4 -0.196656 
2256 5 31.9737 7.1 3.4 -2.95701e-05 
2275 5 22.1356 9.94 3.4 -1.10683 
2276 5 23.3654 9.23 3.4 -0.16063 
2277 5 24.5951 9.94 3.4 -0.796053 
2278 5 25.8249 9.23 3.4 -0.775558 
2279 5 27.0546 9.94 3.4 -0.331344 
2280 5 28.2844 9.23 3.4 1.01946 
2281 5 29.5141 9.94 3.4 0.62503 
2282 5 30.7439 9.23 3.4 0.28865 
2283 5 31.9737 9.94 3.4 -0.000157233 
2302 5 22.1356 11.36 3.4 -0.629081 
2304 5 24.5951 11.36 3.4 0.0184551 
2306 5 27.0546 11.36 3.4 -0.251092 
2308 5 29.5141 11.36 3.4 0.485693 
2310 5 31.9737 11.36 3.4 5.57285e-05 
958 2 24.2665 8.99174 10.4775 0.1578 
652 4 24.1193 3.28515 10.8491 -0.78 
957 1 22.6936 11.1978 10.4188 0.4374 
717 1 28.53 1.46618 10.368 0.4374 
656 4 28.1141 6.94313 11.5332 -0.78 
718 2 30.9158 0.299609 9.82849 0.1578 
16 4 9.09649 12.1424 10.9111 -0.78 
1879 5 0 13.49 6.8 6.33295e-05 
1880 5 1.22976 12.78 6.8 -1.85661 
1881 5 2.45951 13.49 6.8 0.022285 
1882 5 3.68927 12.78 6.8 -0.92222 
1883 5 4.91902 13.49 6.8 -0.200454 
1884 5 6.14878 12.78 6.8 0.93165 
1885 5 7.37854 13.49 6.8 -0.380453 
1886 5 8.60829 12.78 6.8 -0.393815 
1887 5 9.83805 13.49 6.8 0.785097 
1906 5 0 14.91 6.8 0.000339477 
1907 5 1.22976 15.62 6.8 -0.180269 
1908 5 2.45951 14.91 6.8 1.04038 
1909 5 3.68927 15.62 6.8 -0.197238 
1910 5 4.91902 14.91 6.8 0.162285 
1911 5 6.14878 15.62 6.8 0.571758 
1912 5 7.37854 14.91 6.8 -0.594735 
1913 5 8.60829 15.62 6.8 -0.277765 
1914 5 9.83805 14.91 6.8 0.937018 
1933 5 0 17.75 6.8 -0.000111995 
1934 5 1.22976 17.04 6.8 0.32871 
1935 5 2.45951 17.75 6.8 -0.411619 
1936 5 3.68927 17.04 6.8 -0.638444 
1937 5 4.91902 17.75 6.8 0.195735 
1938 5 6.14878 17.04 6.8 1.7763 
1939 5 7.37854 17.75 6.8 1.39671 
1940 5 8.60829 17.04 6.8 -0.797192 
1941 5 9.83805 17.75 6.8 -1.62926 
1960 5 0 19.17 6.8 0.000310607 
1961 5 1.22976 19.88 6.8 0.371275 
1962 5 2.45951 19.17 6.8 -0.398656 
1963 5 3.68927 19.88 6.8 -0.215344 
1964 5 4.91902 19.17 6.8 -1.18711 
1965 5 6.14878 19.88 6.8 -0.0049177 
1966 5 7.37854 19.17 6.8 0.693519 
1967 5 8.60829 19.88 6.8 -0.263065 
1968 5 9.83805 19.17 6.8 -1.19283 
1987 5 0 22.01 6.8 -0.000189594 
1988 5 1.22976 21.3 6.8 0.484539 
1989 5 2.45951 22.01 6.8 0.0822017 
1990 5 3.68927 21.3 6.8 1.18415 
1991 5 4.91902 22.01 6.8 0.706142 
1992 5 6.14878 21.3 6.8 0.889956 
1993 5 7.37854 22.01 6.8 -0.123375 
1994 5 8.60829 21.3 6.8 -0.105439 
1995 5 9.83805 22.01 6.8 0.464581 
2285 5 1.22976 12.07 3.4 -1.23705 
2287 5 3.68927 12.07 3.4 -0.42503 
2289 5 6.14878 12.07 3.4 0.672725 
2291 5 8.60829 12.07 3.4 -1.17296 
2311 5 0 14.2 3.4 0.00019836 
2312 5 1.22976 13.49 3.4 -1.39948 
2313 5 2.45951 14.2 3.4 0.0269891 
2314 5 3.68927 13.49 3.4 -0.920086 
2315 5 4.91902 14.2 3.4 -0.413518 
2316 5 6.14878 13.49 3.4 1.22608 
2317 5 7.37854 14.2 3.4 0.481445 
2318 5 8.60829 13.49 3.4 -0.122847 
2319 5 9.83805 14.2 3.4 -0.272243 
2338 5 0 15.62 3.4 0.000130967 
2339 5 1.22976 16.33 3.4 0.012863 
2340 5 2.45951 15.62 3.4 -0.035329 
2341 5 3.68927 16.33 3.4 0.238856 
2342 5 4.91902 15.62 3.4 0.056775 
2343 5 6.14878 16.33 3.4 1.57002 
2344 5 7.37854 15.62 3.4 -0.204218 
2345 5 8.60829 16.33 3.4 -1.09309 
2346 5 9.83805 15.62 3.4 -0.905111 
2365 5 0 18.46 3.4 0.000299524 
2366 5 1.22976 17.75 3.4 -0.110865 
2367 5 2.45951 18.46 3.4 0.301223 
2368 5 3.68927 17.75 3.4 -0.698188 
2369 5 4.91902 18.46 3.4 -1.05493 
2370 5 6.14878 17.75 3.4 1.1428 
2371 5 7.37854 18.46 3.4 -0.0704598 
2372 5 8.60829 17.75 3.4 -0.0371434 
2373 5 9.83805 18.46 3.4 0.202792 
2392 5 0 19.88 3.4 0.000290581 
2393 5 1.22976 20.59 3.4 -1.50573 
2394 5 2.45951 19.88 3.4 0.963087 
2395 5 3.68927 20.59 3.4 0.453235 
2396 5 4.91902 19.88 3.4 -0.0353231 
2397 5 6.14878 20.59 3.4 0.736528 
2398 5 7.37854 19.88 3.4 -0.229775 
2399 5 8.60829 20.59 3.4 -0.775795 
2400 5 9.83805 19.88 3.4 0.527661 
2419 5 0 22.72 3.4 0.00025078 
2420 5 1.22976 22.01 3.4 -1.91504 
2421 5 2.45951 22.72 3.4 -0.738821 
2422 5 3.68927 22.01 3.4 -1.28631 
2423 5 4.91902 22.72 3.4 -0.673894 
2424 5 6.14878 22.01 3.4 0.41104 
2425 5 7.37854 22.72 3.4 0.102928 
2426 5 8.60829 22.01 3.4 -1.63591 
2427 5 9.83805 22.72 3.4 -0.211947 
664 4 1.24393 13.4719 11.4265 -0.78 
302 2 10.6106 18.5011 9.65654 0.1578 
368 4 2.29672 20.5244 11.3334 -0.78 
662 2 4.87826 11.3728 11.5527 0.1578 
301 1 11.7243 16.2544 10.6843 0.4374 
1888 5 11.0678 12.78 6.8 0.172997 
1889 5 12.2976 13.49 6.8 -0.282731 
1890 5 13.5273 12.78 6.8 -0.362008 
1891 5 14.7571 13.49 6.8 -0.624052 
1892 5 15.9868 12.78 6.8 0.671759 
1893 5 17.2166 13.49 6.8 0.707209 
1894 5 18.4463 12.78 6.8 -1.75862 
1895 5 19.6761 13.49 6.8 -0.899391 
1896 5 20.9059 12.78 6.8 1.43963 
1915 5 11.0678 15.62 6.8 0.893957 
1916 5 12.2976 14.91 6.8 0.432519 
1917 5 13.5273 15.62 6.8 0.860414 
1918 5 14.7571 14.91 6.8 -0.494024 
1919 5 15.9868 15.62 6.8 0.660467 
1920 5 17.2166 14.91 6.8 0.616828 
1921 5 18.4463 15.62 6.8 -1.6977 
1922 5 19.6761 14.91 6.8 -1.0529 
1923 5 20.9059 15.62 6.8 0.624844 
1942 5 11.0678 17.04 6.8 -0.742524 
1943 5 12.2976 17.75 6.8 -0.0756902 
1944 5 13.5273 17.04 6.8 0.497995 
1945 5 14.7571 17.75 6.8 -0.552518 
1946 5 15.9868 17.04 6.8 0.516504 
1947 5 17.2166 17.75 6.8 0.920162 
1948 5 18.4463 17.04 6.8 -0.366284 
1949 5 19.6761 17.75 6.8 -0.0872721 
1950 5 20.9059 17.04 6.8 0.406536 