LAMMPS data file via write_data, version 26 Jan20 2014, timestep = 1

3822 atoms
7 atom types
642 bonds
2 bond types
321 angles
1 angle types

0.0000000000000000e+00 3.1974000000000000e+01 xlo xhi
0.0000000000000000e+00 3.4079999999999998e+01 ylo yhi
-1.5000000000000000e+02 2.7319999999999999e+02 zlo zhi

Masses

1 67.07
2 15.04
3 57.12
4 144.96
5 12.01
6 12.01
7 1

Pair Coeffs

1 0.61185 4.38
2 0.086042 3.41
3 0.43738 5.04
4 1.1257 5.06
5 0.086 3.4
6 0.086 3.4
7 0 0

Bond Coeffs

1 2500 2.71
2 2500 3.82

Angle Coeffs

1 2500 116

Atoms

1285 5 5 -8.6651708441474369e-05 0.0000000000000000e+00 7.0999997900000000e-01 0.0000000000000000e+00 0 0 0
1286 5 5 5.1872768407856096e-01 1.2297560139999999e+00 0.0000000000000000e+00 0.0000000000000000e+00 0 0 0
1287 5 5 1.8866999448645312e+00 2.4595120279999998e+00 7.0999997900000000e-01 0.0000000000000000e+00 0 0 0
1288 5 5 1.9021550404931595e+00 3.6892680420000001e+00 0.0000000000000000e+00 0.0000000000000000e+00 0 0 0
1289 5 5 1.4514513595953751e+00 4.9190240569999997e+00 7.0999997900000000e-01 0.0000000000000000e+00 0 0 0
1290 5 5 -1.3176432206128623e-02 6.1487800710000000e+00 0.0000000000000000e+00 0.0000000000000000e+00 0 0 0
1291 5 5 -1.8515690606905397e+00 7.3785360850000004e+00 7.0999997900000000e-01 0.0000000000000000e+00 0 0 0
1292 5 5 9.7579183772020600e-02 8.6082920989999998e+00 0.0000000000000000e+00 0.0000000000000000e+00 0 0 0
1293 5 5 7.7573595750158786e-01 9.8380481129999993e+00 7.0999997900000000e-01 0.0000000000000000e+00 0 0 0
1312 5 5 -2.9709977988658010e-05 0.0000000000000000e+00 2.1299999359999999e+00 0.0000000000000000e+00 0 0 0
1313 5 5 -6.1893015031227860e-01 1.2297560139999999e+00 2.8399999139999998e+00 0.0000000000000000e+00 0 0 0
1314 5 5 -3.6741934271452903e-01 2.4595120279999998e+00 2.1299999359999999e+00 0.0000000000000000e+00 0 0 0
1315 5 5 -7.9138918560353899e-01 3.6892680420000001e+00 2.8399999139999998e+00 0.0000000000000000e+00 0 0 0
1316 5 5 -7.1765418389042246e-01 4.9190240569999997e+00 2.1299999359999999e+00 0.0000000000000000e+00 0 0 0
1317 5 5 -1.4408217594915480e+00 6.1487800710000000e+00 2.8399999139999998e+00 0.0000000000000000e+00 0 0 0
1318 5 5 -1.7951155693988552e+00 7.3785360850000004e+00 2.1299999359999999e+00 0.0000000000000000e+00 0 0 0
1319 5 5 1.1997593103185471e+00 8.6082920989999998e+00 2.8399999139999998e+00 0.0000000000000000e+00 0 0 0
1320 5 5 1.4745311183246728e+00 9.8380481129999993e+00 2.1299999359999999e+00 0.0000000000000000e+00 0 0 0
1339 5 5 -2.2617101210330889e-04 0.0000000000000000e+00 4.9699998499999998e+00 0.0000000000000000e+00 0 0 0
1340 5 5 7.9668819020227910e-01 1.2297560139999999e+00 4.2599998709999998e+00 0.0000000000000000e+00 0 0 0
1341 5 5 1.6840418266991226e+00 2.4595120279999998e+00 4.9699998499999998e+00 0.0000000000000000e+00 0 0 0
1342 5 5 1.8500943202816418e+00 3.6892680420000001e+00 4.2599998709999998e+00 0.0000000000000000e+00 0 0 0
1343 5 5 1.9604290891951404e+00 4.9190240569999997e+00 4.9699998499999998e+00 0.0000000000000000e+00 0 0 0
1344 5 5 -1.0605536508002097e-01 6.1487800710000000e+00 4.2599998709999998e+00 0.0000000000000000e+00 0 0 0
1345 5 5 -1.3558369813457782e+00 7.3785360850000004e+00 4.9699998499999998e+00 0.0000000000000000e+00 0 0 0
1346 5 5 9.5255382158604696e-01 8.6082920989999998e+00 4.2599998709999998e+00 0.0000000000000000e+00 0 0 0
1347 5 5 9.3711621499955300e-01 9.8380481129999993e+00 4.9699998499999998e+00 0.0000000000000000e+00 0 0 0
1366 5 5 5.5905882776068856e-06 0.0000000000000000e+00 6.3899998069999997e+00 0.0000000000000000e+00 0 0 0
1367 5 5 -4.0032158010338403e-01 1.2297560139999999e+00 7.0999997849999996e+00 0.0000000000000000e+00 0 0 0
1368 5 5 -1.3302366890481014e+00 2.4595120279999998e+00 6.3899998069999997e+00 0.0000000000000000e+00 0 0 0
1369 5 5 -2.8404504734272602e+00 3.6892680420000001e+00 7.0999997849999996e+00 0.0000000000000000e+00 0 0 0
1370 5 5 4.4405559891207536e-01 4.9190240569999997e+00 6.3899998069999997e+00 0.0000000000000000e+00 0 0 0
1371 5 5 1.8307099895445023e+00 6.1487800710000000e+00 7.0999997849999996e+00 0.0000000000000000e+00 0 0 0
1372 5 5 -2.0436230070107131e+00 7.3785360850000004e+00 6.3899998069999997e+00 0.0000000000000000e+00 0 0 0
1373 5 5 -1.9799933836023367e+00 8.6082920989999998e+00 7.0999997849999996e+00 0.0000000000000000e+00 0 0 0
1374 5 5 8.5976266755111752e-01 9.8380481129999993e+00 6.3899998069999997e+00 0.0000000000000000e+00 0 0 0
1393 5 5 -2.9464275618454577e-04 0.0000000000000000e+00 9.2299997210000004e+00 0.0000000000000000e+00 0 0 0
1394 5 5 1.1442389066227416e+00 1.2297560139999999e+00 8.5199997429999996e+00 0.0000000000000000e+00 0 0 0
1395 5 5 1.5256116095433230e+00 2.4595120279999998e+00 9.2299997210000004e+00 0.0000000000000000e+00 0 0 0
1396 5 5 -1.0380432081931328e+00 3.6892680420000001e+00 8.5199997429999996e+00 0.0000000000000000e+00 0 0 0
1397 5 5 4.6394781704372012e-01 4.9190240569999997e+00 9.2299997210000004e+00 0.0000000000000000e+00 0 0 0
1398 5 5 2.4618798217945042e+00 6.1487800710000000e+00 8.5199997429999996e+00 0.0000000000000000e+00 0 0 0
1399 5 5 9.4393055958409711e-01 7.3785360850000004e+00 9.2299997210000004e+00 0.0000000000000000e+00 0 0 0
1400 5 5 -3.5545446397901270e-01 8.6082920989999998e+00 8.5199997429999996e+00 0.0000000000000000e+00 0 0 0
1401 5 5 1.7952153015719485e-01 9.8380481129999993e+00 9.2299997210000004e+00 0.0000000000000000e+00 0 0 0
1420 5 5 2.5225614674670031e-04 0.0000000000000000e+00 1.0649999678000000e+01 0.0000000000000000e+00 0 0 0
1421 5 5 -9.2591843365164228e-01 1.2297560139999999e+00 1.1359999656999999e+01 0.0000000000000000e+00 0 0 0
1422 5 5 1.2687087469704603e+00 2.4595120279999998e+00 1.0649999678000000e+01 0.0000000000000000e+00 0 0 0
1423 5 5 7.3168102873001434e-02 3.6892680420000001e+00 1.1359999656999999e+01 0.0000000000000000e+00 0 0 0
1424 5 5 -4.9914410512695412e-01 4.9190240569999997e+00 1.0649999678000000e+01 0.0000000000000000e+00 0 0 0
1425 5 5 -5.8701234919972134e-01 6.1487800710000000e+00 1.1359999656999999e+01 0.0000000000000000e+00 0 0 0
1426 5 5 -2.1180520933615879e-01 7.3785360850000004e+00 1.0649999678000000e+01 0.0000000000000000e+00 0 0 0
1427 5 5 -2.1126998494355281e-01 8.6082920989999998e+00 1.1359999656999999e+01 0.0000000000000000e+00 0 0 0
1428 5 5 -1.0596735936960942e+00 9.8380481129999993e+00 1.0649999678000000e+01 0.0000000000000000e+00 0 0 0
1294 5 5 4.6940727809254762e-01 1.1067804127000000e+01 0.0000000000000000e+00 0.0000000000000000e+00 0 0 0
1295 5 5 -7.0124618121109850e-01 1.2297560141000000e+01 7.0999997900000000e-01 0.0000000000000000e+00 0 0 0
1296 5 5 4.3715283363708662e-01 1.3527316154999999e+01 0.0000000000000000e+00 0.0000000000000000e+00 0 0 0
1297 5 5 -1.2999659167545206e+00 1.4757072170000001e+01 7.0999997900000000e-01 0.0000000000000000e+00 0 0 0
1298 5 5 7.2173857236150063e-01 1.5986828184000000e+01 0.0000000000000000e+00 0.0000000000000000e+00 0 0 0
1299 5 5 1.9192873158770023e+00 1.7216584198000000e+01 7.0999997900000000e-01 0.0000000000000000e+00 0 0 0
1300 5 5 -2.2377736398792303e-01 1.8446340211999999e+01 0.0000000000000000e+00 0.0000000000000000e+00 0 0 0
1301 5 5 -5.5066814206772186e-01 1.9676096225999999e+01 7.0999997900000000e-01 0.0000000000000000e+00 0 0 0
1302 5 5 2.4669619783855654e-02 2.0905852240000002e+01 0.0000000000000000e+00 0.0000000000000000e+00 0 0 0
1321 5 5 -6.8142807421457663e-01 1.1067804127000000e+01 2.8399999139999998e+00 0.0000000000000000e+00 0 0 0
1322 5 5 -1.6596010539202952e+00 1.2297560141000000e+01 2.1299999359999999e+00 0.0000000000000000e+00 0 0 0
1323 5 5 -2.7341235172760925e-01 1.3527316154999999e+01 2.8399999139999998e+00 0.0000000000000000e+00 0 0 0
1324 5 5 -1.6112962047741377e+00 1.4757072170000001e+01 2.1299999359999999e+00 0.0000000000000000e+00 0 0 0
1325 5 5 4.1593611686628601e-01 1.5986828184000000e+01 2.8399999139999998e+00 0.0000000000000000e+00 0 0 0
1326 5 5 9.9614918186284274e-01 1.7216584198000000e+01 2.1299999359999999e+00 0.0000000000000000e+00 0 0 0
1327 5 5 -1.5587767870197140e+00 1.8446340211999999e+01 2.8399999139999998e+00 0.0000000000000000e+00 0 0 0
1328 5 5 -5.1048314662289240e-01 1.9676096225999999e+01 2.1299999359999999e+00 0.0000000000000000e+00 0 0 0
1329 5 5 7.4433919057605202e-01 2.0905852240000002e+01 2.8399999139999998e+00 0.0000000000000000e+00 0 0 0
1348 5 5 -8.5194390436088230e-01 1.1067804127000000e+01 4.2599998709999998e+00 0.0000000000000000e+00 0 0 0
1349 5 5 -1.1049736603902822e+00 1.2297560141000000e+01 4.9699998499999998e+00 0.0000000000000000e+00 0 0 0
1350 5 5 1.5154620234794888e-01 1.3527316154999999e+01 4.2599998709999998e+00 0.0000000000000000e+00 0 0 0
1351 5 5 4.2521598385727727e-01 1.4757072170000001e+01 4.9699998499999998e+00 0.0000000000000000e+00 0 0 0
1352 5 5 9.2273328138077571e-01 1.5986828184000000e+01 4.2599998709999998e+00 0.0000000000000000e+00 0 0 0
1353 5 5 1.8573580463558062e-01 1.7216584198000000e+01 4.9699998499999998e+00 0.0000000000000000e+00 0 0 0
1354 5 5 -1.8128122916803309e+00 1.8446340211999999e+01 4.2599998709999998e+00 0.0000000000000000e+00 0 0 0
1355 5 5 3.7436190148149431e-02 1.9676096225999999e+01 4.9699998499999998e+00 0.0000000000000000e+00 0 0 0
1356 5 5 2.5759454676298393e-01 2.0905852240000002e+01 4.2599998709999998e+00 0.0000000000000000e+00 0 0 0
1375 5 5 2.3470173185635925e+00 1.1067804127000000e+01 7.0999997849999996e+00 0.0000000000000000e+00 0 0 0
1376 5 5 1.9711734829016289e-01 1.2297560141000000e+01 6.3899998069999997e+00 0.0000000000000000e+00 0 0 0
1377 5 5 -1.3426047817224501e-01 1.3527316154999999e+01 7.0999997849999996e+00 0.0000000000000000e+00 0 0 0
1378 5 5 -4.8344762151090775e-01 1.4757072170000001e+01 6.3899998069999997e+00 0.0000000000000000e+00 0 0 0
1379 5 5 1.8776069237383242e-01 1.5986828184000000e+01 7.0999997849999996e+00 0.0000000000000000e+00 0 0 0
1380 5 5 1.0108217384247129e+00 1.7216584198000000e+01 6.3899998069999997e+00 0.0000000000000000e+00 0 0 0
1381 5 5 7.9707040003616625e-01 1.8446340211999999e+01 7.0999997849999996e+00 0.0000000000000000e+00 0 0 0
1382 5 5 8.7706637664560350e-01 1.9676096225999999e+01 6.3899998069999997e+00 0.0000000000000000e+00 0 0 0
1383 5 5 1.5336715357281788e-01 2.0905852240000002e+01 7.0999997849999996e+00 0.0000000000000000e+00 0 0 0
1402 5 5 1.3815936660754791e+00 1.1067804127000000e+01 8.5199997429999996e+00 0.0000000000000000e+00 0 0 0
1403 5 5 -6.4371674841622784e-01 1.2297560141000000e+01 9.2299997210000004e+00 0.0000000000000000e+00 0 0 0
1404 5 5 -5.2106876238945155e-01 1.3527316154999999e+01 8.5199997429999996e+00 0.0000000000000000e+00 0 0 0
1405 5 5 -7.8062798802274203e-01 1.4757072170000001e+01 9.2299997210000004e+00 0.0000000000000000e+00 0 0 0
1406 5 5 -4.1106608222573959e-01 1.5986828184000000e+01 8.5199997429999996e+00 0.0000000000000000e+00 0 0 0
1407 5 5 4.3538128729660258e-01 1.7216584198000000e+01 9.2299997210000004e+00 0.0000000000000000e+00 0 0 0
1408 5 5 2.8160358534124841e-01 1.8446340211999999e+01 8.5199997429999996e+00 0.0000000000000000e+00 0 0 0
1409 5 5 1.7679555839303426e-01 1.9676096225999999e+01 9.2299997210000004e+00 0.0000000000000000e+00 0 0 0
1410 5 5 -1.0757304444678020e+00 2.0905852240000002e+01 8.5199997429999996e+00 0.0000000000000000e+00 0 0 0
1429 5 5 -1.1297698229292570e+00 1.1067804127000000e+01 1.1359999656999999e+01 0.0000000000000000e+00 0 0 0
1430 5 5 -9.5702568700363111e-01 1.2297560141000000e+01 1.0649999678000000e+01 0.0000000000000000e+00 0 0 0
1431 5 5 7.4464192012521102e-01 1.3527316154999999e+01 1.1359999656999999e+01 0.0000000000000000e+00 0 0 0
1432 5 5 2.2824472944003487e-03 1.4757072170000001e+01 1.0649999678000000e+01 0.0000000000000000e+00 0 0 0
1433 5 5 -2.0843310843838783e-01 1.5986828184000000e+01 1.1359999656999999e+01 0.0000000000000000e+00 0 0 0
1434 5 5 3.0763590614626013e-01 1.7216584198000000e+01 1.0649999678000000e+01 0.0000000000000000e+00 0 0 0
1435 5 5 -1.6598287473074066e-01 1.8446340211999999e+01 1.1359999656999999e+01 0.0000000000000000e+00 0 0 0
1436 5 5 4.4788935289091586e-01 1.9676096225999999e+01 1.0649999678000000e+01 0.0000000000000000e+00 0 0 0
1437 5 5 1.3299518434293087e-01 2.0905852240000002e+01 1.1359999656999999e+01 0.0000000000000000e+00 0 0 0
1303 5 5 -1.0351552292043011e+00 2.2135608254000001e+01 7.0999997900000000e-01 0.0000000000000000e+00 0 0 0
1304 5 5 -4.5178204954309586e-01 2.3365364269000001e+01 0.0000000000000000e+00 0.0000000000000000e+00 0 0 0
1305 5 5 8.4336599777100241e-01 2.4595120283000000e+01 7.0999997900000000e-01 0.0000000000000000e+00 0 0 0
1306 5 5 5.0769543572073617e-01 2.5824876296999999e+01 0.0000000000000000e+00 0.0000000000000000e+00 0 0 0
1307 5 5 1.7135711218570684e-01 2.7054632310999999e+01 7.0999997900000000e-01 0.0000000000000000e+00 0 0 0
1308 5 5 -1.3996255884561348e-01 2.8284388324999998e+01 0.0000000000000000e+00 0.0000000000000000e+00 0 0 0
1309 5 5 -3.1584445818713708e-01 2.9514144339000001e+01 7.0999997900000000e-01 0.0000000000000000e+00 0 0 0
1310 5 5 1.1534311201855925e+00 3.0743900353000001e+01 0.0000000000000000e+00 0.0000000000000000e+00 0 0 0
1311 5 5 -8.6636484353868037e-05 3.1973656368000000e+01 7.0999997900000000e-01 0.0000000000000000e+00 0 0 0
1330 5 5 2.4093973750304881e-01 2.2135608254000001e+01 2.1299999359999999e+00 0.0000000000000000e+00 0 0 0
1331 5 5 1.2906822725717138e+00 2.3365364269000001e+01 2.8399999139999998e+00 0.0000000000000000e+00 0 0 0
1332 5 5 1.0530506077446689e+00 2.4595120283000000e+01 2.1299999359999999e+00 0.0000000000000000e+00 0 0 0
1333 5 5 -5.9017845625392451e-01 2.5824876296999999e+01 2.8399999139999998e+00 0.0000000000000000e+00 0 0 0
1334 5 5 -2.6246157982729296e-01 2.7054632310999999e+01 2.1299999359999999e+00 0.0000000000000000e+00 0 0 0
1335 5 5 9.8392692062209589e-02 2.8284388324999998e+01 2.8399999139999998e+00 0.0000000000000000e+00 0 0 0
1336 5 5 -5.7921335766495641e-01 2.9514144339000001e+01 2.1299999359999999e+00 0.0000000000000000e+00 0 0 0
1337 5 5 1.1542323854553300e+00 3.0743900353000001e+01 2.8399999139999998e+00 0.0000000000000000e+00 0 0 0
1338 5 5 -2.9661673689588073e-05 3.1973656368000000e+01 2.1299999359999999e+00 0.0000000000000000e+00 0 0 0
1357 5 5 -2.5930806636741766e-01 2.2135608254000001e+01 4.9699998499999998e+00 0.0000000000000000e+00 0 0 0
1358 5 5 4.4650714336829744e-01 2.3365364269000001e+01 4.2599998709999998e+00 0.0000000000000000e+00 0 0 0
1359 5 5 -5.5993332312702238e-01 2.4595120283000000e+01 4.9699998499999998e+00 0.0000000000000000e+00 0 0 0
1360 5 5 -8.2121417390478157e-01 2.5824876296999999e+01 4.2599998709999998e+00 0.0000000000000000e+00 0 0 0
1361 5 5 4.3944109026493627e-01 2.7054632310999999e+01 4.9699998499999998e+00 0.0000000000000000e+00 0 0 0
1362 5 5 3.6497487552772656e-01 2.8284388324999998e+01 4.2599998709999998e+00 0.0000000000000000e+00 0 0 0
1363 5 5 -1.6337897324221546e+00 2.9514144339000001e+01 4.9699998499999998e+00 0.0000000000000000e+00 0 0 0
1364 5 5 9.3189817405299524e-01 3.0743900353000001e+01 4.2599998709999998e+00 0.0000000000000000e+00 0 0 0
1365 5 5 -2.2082149504977944e-04 3.1973656368000000e+01 4.9699998499999998e+00 0.0000000000000000e+00 0 0 0
1384 5 5 -3.0173247311064220e-02 2.2135608254000001e+01 6.3899998069999997e+00 0.0000000000000000e+00 0 0 0
1385 5 5 7.8937360560686931e-01 2.3365364269000001e+01 7.0999997849999996e+00 0.0000000000000000e+00 0 0 0
1386 5 5 7.0265632540069414e-02 2.4595120283000000e+01 6.3899998069999997e+00 0.0000000000000000e+00 0 0 0
1387 5 5 2.5411825664577120e-01 2.5824876296999999e+01 7.0999997849999996e+00 0.0000000000000000e+00 0 0 0
1388 5 5 4.2277624906475181e-01 2.7054632310999999e+01 6.3899998069999997e+00 0.0000000000000000e+00 0 0 0
1389 5 5 -2.5505463271686157e-01 2.8284388324999998e+01 7.0999997849999996e+00 0.0000000000000000e+00 0 0 0
1390 5 5 -2.7663852242116711e+00 2.9514144339000001e+01 6.3899998069999997e+00 0.0000000000000000e+00 0 0 0
1391 5 5 -6.5736237468984848e-01 3.0743900353000001e+01 7.0999997849999996e+00 0.0000000000000000e+00 0 0 0
1392 5 5 3.3289310977825230e-05 3.1973656368000000e+01 6.3899998069999997e+00 0.0000000000000000e+00 0 0 0
1411 5 5 -1.0724658861305196e+00 2.2135608254000001e+01 9.2299997210000004e+00 0.0000000000000000e+00 0 0 0
1412 5 5 1.7303782892463429e-01 2.3365364269000001e+01 8.5199997429999996e+00 0.0000000000000000e+00 0 0 0
1413 5 5 2.6011548677160401e-01 2.4595120283000000e+01 9.2299997210000004e+00 0.0000000000000000e+00 0 0 0
1414 5 5 2.7208132525281525e-01 2.5824876296999999e+01 8.5199997429999996e+00 0.0000000000000000e+00 0 0 0
1415 5 5 6.1703991321556940e-02 2.7054632310999999e+01 9.2299997210000004e+00 0.0000000000000000e+00 0 0 0
1416 5 5 1.1203230359169771e+00 2.8284388324999998e+01 8.5199997429999996e+00 0.0000000000000000e+00 0 0 0
1417 5 5 8.2862145327779102e-01 2.9514144339000001e+01 9.2299997210000004e+00 0.0000000000000000e+00 0 0 0
1418 5 5 3.9413291524033273e-01 3.0743900353000001e+01 8.5199997429999996e+00 0.0000000000000000e+00 0 0 0
1419 5 5 -2.0693636769669792e-04 3.1973656368000000e+01 9.2299997210000004e+00 0.0000000000000000e+00 0 0 0
1438 5 5 -3.7572822169128633e-01 2.2135608254000001e+01 1.0649999678000000e+01 0.0000000000000000e+00 0 0 0
1439 5 5 5.9678029274440447e-01 2.3365364269000001e+01 1.1359999656999999e+01 0.0000000000000000e+00 0 0 0
1440 5 5 -2.9337167316321466e-01 2.4595120283000000e+01 1.0649999678000000e+01 0.0000000000000000e+00 0 0 0
1441 5 5 -1.5926223078410249e+00 2.5824876296999999e+01 1.1359999656999999e+01 0.0000000000000000e+00 0 0 0
1442 5 5 -1.1547263123010773e-01 2.7054632310999999e+01 1.0649999678000000e+01 0.0000000000000000e+00 0 0 0
1443 5 5 2.6709762928867016e+00 2.8284388324999998e+01 1.1359999656999999e+01 0.0000000000000000e+00 0 0 0
1444 5 5 7.4836648925266303e-01 2.9514144339000001e+01 1.0649999678000000e+01 0.0000000000000000e+00 0 0 0
1445 5 5 -1.3092800511690226e+00 3.0743900353000001e+01 1.1359999656999999e+01 0.0000000000000000e+00 0 0 0
1446 5 5 3.3867990659055863e-04 3.1973656368000000e+01 1.0649999678000000e+01 0.0000000000000000e+00 0 0 0
1447 5 5 3.3770599262971307e-04 0.0000000000000000e+00 1.3489999592000000e+01 0.0000000000000000e+00 0 0 0
1448 5 5 -1.0108159330927742e+00 1.2297560139999999e+00 1.2779999613999999e+01 0.0000000000000000e+00 0 0 0
1449 5 5 6.2796503034494067e-01 2.4595120279999998e+00 1.3489999592000000e+01 0.0000000000000000e+00 0 0 0
1450 5 5 -4.2737353903555550e-03 3.6892680420000001e+00 1.2779999613999999e+01 0.0000000000000000e+00 0 0 0
1451 5 5 -1.0829692020589934e+00 4.9190240569999997e+00 1.3489999592000000e+01 0.0000000000000000e+00 0 0 0
1452 5 5 -4.9286725087969679e-01 6.1487800710000000e+00 1.2779999613999999e+01 0.0000000000000000e+00 0 0 0
1453 5 5 1.0499389847667522e+00 7.3785360850000004e+00 1.3489999592000000e+01 0.0000000000000000e+00 0 0 0
1454 5 5 6.9248812500136137e-01 8.6082920989999998e+00 1.2779999613999999e+01 0.0000000000000000e+00 0 0 0
1455 5 5 -3.9773206790358451e-01 9.8380481129999993e+00 1.3489999592000000e+01 0.0000000000000000e+00 0 0 0
1474 5 5 4.3892429699353518e-05 0.0000000000000000e+00 1.4909999549000000e+01 0.0000000000000000e+00 0 0 0
1475 5 5 -5.4429330498150530e-01 1.2297560139999999e+00 1.5619999527999999e+01 0.0000000000000000e+00 0 0 0
1476 5 5 3.0574718993659283e-01 2.4595120279999998e+00 1.4909999549000000e+01 0.0000000000000000e+00 0 0 0
1477 5 5 -9.4875184374027477e-01 3.6892680420000001e+00 1.5619999527999999e+01 0.0000000000000000e+00 0 0 0
1478 5 5 -1.9739611418031881e-02 4.9190240569999997e+00 1.4909999549000000e+01 0.0000000000000000e+00 0 0 0
1479 5 5 2.2112152650269454e+00 6.1487800710000000e+00 1.5619999527999999e+01 0.0000000000000000e+00 0 0 0
1480 5 5 1.6555790816080347e+00 7.3785360850000004e+00 1.4909999549000000e+01 0.0000000000000000e+00 0 0 0
1481 5 5 -7.3159438088901529e-01 8.6082920989999998e+00 1.5619999527999999e+01 0.0000000000000000e+00 0 0 0
1482 5 5 -1.6170996240346165e+00 9.8380481129999993e+00 1.4909999549000000e+01 0.0000000000000000e+00 0 0 0
1501 5 5 -2.6754443891945433e-05 0.0000000000000000e+00 1.7749999463999998e+01 0.0000000000000000e+00 0 0 0
1502 5 5 -2.2841384708184254e-02 1.2297560139999999e+00 1.7039999484999999e+01 0.0000000000000000e+00 0 0 0
1503 5 5 7.2633445720776668e-01 2.4595120279999998e+00 1.7749999463999998e+01 0.0000000000000000e+00 0 0 0
1504 5 5 -6.3854829651531642e-01 3.6892680420000001e+00 1.7039999484999999e+01 0.0000000000000000e+00 0 0 0
1505 5 5 -5.1617791860602569e-01 4.9190240569999997e+00 1.7749999463999998e+01 0.0000000000000000e+00 0 0 0
1506 5 5 7.4724779266367436e-01 6.1487800710000000e+00 1.7039999484999999e+01 0.0000000000000000e+00 0 0 0
1507 5 5 -2.3989810983120888e-01 7.3785360850000004e+00 1.7749999463999998e+01 0.0000000000000000e+00 0 0 0
1508 5 5 -1.9319278442606660e-01 8.6082920989999998e+00 1.7039999484999999e+01 0.0000000000000000e+00 0 0 0
1509 5 5 7.2995432947682537e-01 9.8380481129999993e+00 1.7749999463999998e+01 0.0000000000000000e+00 0 0 0
1528 5 5 -1.1933303493885147e-04 0.0000000000000000e+00 1.9169999421000000e+01 0.0000000000000000e+00 0 0 0
1529 5 5 2.6504710923138791e-01 1.2297560139999999e+00 1.9879999398999999e+01 0.0000000000000000e+00 0 0 0
1530 5 5 8.7902050556286015e-01 2.4595120279999998e+00 1.9169999421000000e+01 0.0000000000000000e+00 0 0 0
1531 5 5 2.1047461536149451e-02 3.6892680420000001e+00 1.9879999398999999e+01 0.0000000000000000e+00 0 0 0
1532 5 5 4.0649895202396424e-01 4.9190240569999997e+00 1.9169999421000000e+01 0.0000000000000000e+00 0 0 0
1533 5 5 1.7303557182850382e+00 6.1487800710000000e+00 1.9879999398999999e+01 0.0000000000000000e+00 0 0 0
1534 5 5 -7.7259890205239479e-01 7.3785360850000004e+00 1.9169999421000000e+01 0.0000000000000000e+00 0 0 0
1535 5 5 -1.2476631180698048e+00 8.6082920989999998e+00 1.9879999398999999e+01 0.0000000000000000e+00 0 0 0
1536 5 5 1.8787285484097288e-01 9.8380481129999993e+00 1.9169999421000000e+01 0.0000000000000000e+00 0 0 0
1555 5 5 -3.2242648025237076e-05 0.0000000000000000e+00 2.2009999335000000e+01 0.0000000000000000e+00 0 0 0
1556 5 5 -5.9527333732433196e-01 1.2297560139999999e+00 2.1299999356000001e+01 0.0000000000000000e+00 0 0 0
1557 5 5 -5.8171334297847233e-01 2.4595120279999998e+00 2.2009999335000000e+01 0.0000000000000000e+00 0 0 0
1558 5 5 -1.0182690403175074e+00 3.6892680420000001e+00 2.1299999356000001e+01 0.0000000000000000e+00 0 0 0
1559 5 5 -2.7757346399211830e-01 4.9190240569999997e+00 2.2009999335000000e+01 0.0000000000000000e+00 0 0 0
1560 5 5 1.3584105209297577e+00 6.1487800710000000e+00 2.1299999356000001e+01 0.0000000000000000e+00 0 0 0
1561 5 5 -1.0134404812333810e+00 7.3785360850000004e+00 2.2009999335000000e+01 0.0000000000000000e+00 0 0 0
1562 5 5 -5.1072013681854433e-01 8.6082920989999998e+00 2.1299999356000001e+01 0.0000000000000000e+00 0 0 0
1563 5 5 2.2876782891817355e+00 9.8380481129999993e+00 2.2009999335000000e+01 0.0000000000000000e+00 0 0 0
1456 5 5 -2.7486679158513683e-01 1.1067804127000000e+01 1.2779999613999999e+01 0.0000000000000000e+00 0 0 0
1457 5 5 -2.5941836870128293e-01 1.2297560141000000e+01 1.3489999592000000e+01 0.0000000000000000e+00 0 0 0
1458 5 5 5.3435839747749925e-01 1.3527316154999999e+01 1.2779999613999999e+01 0.0000000000000000e+00 0 0 0
1459 5 5 1.3973462807564305e-01 1.4757072170000001e+01 1.3489999592000000e+01 0.0000000000000000e+00 0 0 0
1460 5 5 -6.2386077421895292e-01 1.5986828184000000e+01 1.2779999613999999e+01 0.0000000000000000e+00 0 0 0
1461 5 5 -6.7051481859564388e-01 1.7216584198000000e+01 1.3489999592000000e+01 0.0000000000000000e+00 0 0 0
1462 5 5 3.9440887085470655e-01 1.8446340211999999e+01 1.2779999613999999e+01 0.0000000000000000e+00 0 0 0
1463 5 5 1.7840874841988459e+00 1.9676096225999999e+01 1.3489999592000000e+01 0.0000000000000000e+00 0 0 0
1464 5 5 7.6027053231307573e-01 2.0905852240000002e+01 1.2779999613999999e+01 0.0000000000000000e+00 0 0 0
1483 5 5 -6.7796869078622068e-01 1.1067804127000000e+01 1.5619999527999999e+01 0.0000000000000000e+00 0 0 0
1484 5 5 4.3346664687915470e-01 1.2297560141000000e+01 1.4909999549000000e+01 0.0000000000000000e+00 0 0 0
1485 5 5 2.7294873068731134e+00 1.3527316154999999e+01 1.5619999527999999e+01 0.0000000000000000e+00 0 0 0
1486 5 5 1.1805504618560398e+00 1.4757072170000001e+01 1.4909999549000000e+01 0.0000000000000000e+00 0 0 0
1487 5 5 1.1652974739012475e-01 1.5986828184000000e+01 1.5619999527999999e+01 0.0000000000000000e+00 0 0 0
1488 5 5 -1.0715934034530006e+00 1.7216584198000000e+01 1.4909999549000000e+01 0.0000000000000000e+00 0 0 0
1489 5 5 -2.5213685619343851e+00 1.8446340211999999e+01 1.5619999527999999e+01 0.0000000000000000e+00 0 0 0
1490 5 5 2.5517403776344472e-01 1.9676096225999999e+01 1.4909999549000000e+01 0.0000000000000000e+00 0 0 0
1491 5 5 7.2457789987234278e-01 2.0905852240000002e+01 1.5619999527999999e+01 0.0000000000000000e+00 0 0 0
1510 5 5 -3.7965905774854070e-01 1.1067804127000000e+01 1.7039999484999999e+01 0.0000000000000000e+00 0 0 0
1511 5 5 -7.6171003798451564e-01 1.2297560141000000e+01 1.7749999463999998e+01 0.0000000000000000e+00 0 0 0
1512 5 5 1.1554013708260420e+00 1.3527316154999999e+01 1.7039999484999999e+01 0.0000000000000000e+00 0 0 0
1513 5 5 1.5119677593968700e-01 1.4757072170000001e+01 1.7749999463999998e+01 0.0000000000000000e+00 0 0 0
1514 5 5 -1.9255409527087727e-01 1.5986828184000000e+01 1.7039999484999999e+01 0.0000000000000000e+00 0 0 0
1515 5 5 7.5736602141369458e-02 1.7216584198000000e+01 1.7749999463999998e+01 0.0000000000000000e+00 0 0 0
1516 5 5 -5.5844300963052229e-01 1.8446340211999999e+01 1.7039999484999999e+01 0.0000000000000000e+00 0 0 0
1517 5 5 1.2825683630791966e+00 1.9676096225999999e+01 1.7749999463999998e+01 0.0000000000000000e+00 0 0 0
1518 5 5 1.6818810696852533e+00 2.0905852240000002e+01 1.7039999484999999e+01 0.0000000000000000e+00 0 0 0
1537 5 5 3.7634715555536144e-02 1.1067804127000000e+01 1.9879999398999999e+01 0.0000000000000000e+00 0 0 0
1538 5 5 -2.3391334239502402e+00 1.2297560141000000e+01 1.9169999421000000e+01 0.0000000000000000e+00 0 0 0
1539 5 5 -8.7722043504453961e-01 1.3527316154999999e+01 1.9879999398999999e+01 0.0000000000000000e+00 0 0 0
1540 5 5 7.0048799956802088e-01 1.4757072170000001e+01 1.9169999421000000e+01 0.0000000000000000e+00 0 0 0
1541 5 5 1.0628693622631371e+00 1.5986828184000000e+01 1.9879999398999999e+01 0.0000000000000000e+00 0 0 0
1542 5 5 -1.6835617518655885e-01 1.7216584198000000e+01 1.9169999421000000e+01 0.0000000000000000e+00 0 0 0
1543 5 5 -2.4882058072751523e+00 1.8446340211999999e+01 1.9879999398999999e+01 0.0000000000000000e+00 0 0 0
1544 5 5 -1.9364173637692342e-01 1.9676096225999999e+01 1.9169999421000000e+01 0.0000000000000000e+00 0 0 0
1545 5 5 2.9204718678559383e-01 2.0905852240000002e+01 1.9879999398999999e+01 0.0000000000000000e+00 0 0 0
1564 5 5 1.9293762444411333e+00 1.1067804127000000e+01 2.1299999356000001e+01 0.0000000000000000e+00 0 0 0
1565 5 5 -3.7381956887842532e-01 1.2297560141000000e+01 2.2009999335000000e+01 0.0000000000000000e+00 0 0 0
1566 5 5 -7.7558475027684126e-01 1.3527316154999999e+01 2.1299999356000001e+01 0.0000000000000000e+00 0 0 0
1567 5 5 -6.4149134938296049e-01 1.4757072170000001e+01 2.2009999335000000e+01 0.0000000000000000e+00 0 0 0
1568 5 5 8.7681172324629264e-01 1.5986828184000000e+01 2.1299999356000001e+01 0.0000000000000000e+00 0 0 0
1569 5 5 9.1024052868398697e-01 1.7216584198000000e+01 2.2009999335000000e+01 0.0000000000000000e+00 0 0 0
1570 5 5 -1.9077798113913400e+00 1.8446340211999999e+01 2.1299999356000001e+01 0.0000000000000000e+00 0 0 0
1571 5 5 8.6430976997175080e-01 1.9676096225999999e+01 2.2009999335000000e+01 0.0000000000000000e+00 0 0 0
1572 5 5 1.4886339049225090e+00 2.0905852240000002e+01 2.1299999356000001e+01 0.0000000000000000e+00 0 0 0
1465 5 5 -5.9612176249170301e-01 2.2135608254000001e+01 1.3489999592000000e+01 0.0000000000000000e+00 0 0 0
1466 5 5 7.2316844858734408e-01 2.3365364269000001e+01 1.2779999613999999e+01 0.0000000000000000e+00 0 0 0
1467 5 5 8.4743920514771609e-01 2.4595120283000000e+01 1.3489999592000000e+01 0.0000000000000000e+00 0 0 0
1468 5 5 -1.7761099182889173e+00 2.5824876296999999e+01 1.2779999613999999e+01 0.0000000000000000e+00 0 0 0
1469 5 5 -2.2199009216444048e+00 2.7054632310999999e+01 1.3489999592000000e+01 0.0000000000000000e+00 0 0 0
1470 5 5 1.5823297540382841e+00 2.8284388324999998e+01 1.2779999613999999e+01 0.0000000000000000e+00 0 0 0
1471 5 5 5.7414839557967146e-01 2.9514144339000001e+01 1.3489999592000000e+01 0.0000000000000000e+00 0 0 0
1472 5 5 -9.7469519285708117e-01 3.0743900353000001e+01 1.2779999613999999e+01 0.0000000000000000e+00 0 0 0
1473 5 5 3.4837950031731634e-04 3.1973656368000000e+01 1.3489999592000000e+01 0.0000000000000000e+00 0 0 0
1492 5 5 -9.5111742106464015e-01 2.2135608254000001e+01 1.4909999549000000e+01 0.0000000000000000e+00 0 0 0
1493 5 5 7.9095999089668440e-02 2.3365364269000001e+01 1.5619999527999999e+01 0.0000000000000000e+00 0 0 0
1494 5 5 1.9255363698126591e+00 2.4595120283000000e+01 1.4909999549000000e+01 0.0000000000000000e+00 0 0 0
1495 5 5 8.0948373103550797e-01 2.5824876296999999e+01 1.5619999527999999e+01 0.0000000000000000e+00 0 0 0
1496 5 5 -2.1922883053776139e+00 2.7054632310999999e+01 1.4909999549000000e+01 0.0000000000000000e+00 0 0 0
1497 5 5 -8.2421995915642265e-01 2.8284388324999998e+01 1.5619999527999999e+01 0.0000000000000000e+00 0 0 0
1498 5 5 2.0085635076981853e-01 2.9514144339000001e+01 1.4909999549000000e+01 0.0000000000000000e+00 0 0 0
1499 5 5 4.7799609259994891e-01 3.0743900353000001e+01 1.5619999527999999e+01 0.0000000000000000e+00 0 0 0
1500 5 5 2.5986446393969540e-05 3.1973656368000000e+01 1.4909999549000000e+01 0.0000000000000000e+00 0 0 0
1519 5 5 -3.0109501323709786e-01 2.2135608254000001e+01 1.7749999463999998e+01 0.0000000000000000e+00 0 0 0
1520 5 5 -6.6876525683140309e-01 2.3365364269000001e+01 1.7039999484999999e+01 0.0000000000000000e+00 0 0 0
1521 5 5 -1.3035327482103118e-01 2.4595120283000000e+01 1.7749999463999998e+01 0.0000000000000000e+00 0 0 0
1522 5 5 1.1353551898884449e+00 2.5824876296999999e+01 1.7039999484999999e+01 0.0000000000000000e+00 0 0 0